/*--------------------------------*- C++ -*----------------------------------*\
  =========                 |
  \\      /  F ield         | OpenFOAM: The Open Source CFD Toolbox
   \\    /   O peration     | Website:  https://openfoam.org
    \\  /    A nd           | Version:  7
     \\/     M anipulation  |
\*---------------------------------------------------------------------------*/
FoamFile
{
    version     2.0;
    format      ascii;
    class       volScalarField;
    location    "4";
    object      p;
}
// * * * * * * * * * * * * * * * * * * * * * * * * * * * * * * * * * * * * * //

dimensions      [0 2 -2 0 0 0 0];

internalField   nonuniform List<scalar> 
4000
(
427.133
413.897
409.841
404.565
399.88
395.091
390.486
385.938
381.48
377.075
372.72
368.403
364.117
359.857
355.616
351.392
347.18
342.98
338.788
334.603
330.423
326.248
322.077
317.909
313.743
309.578
305.416
301.255
297.094
292.935
288.776
284.618
280.46
276.303
272.146
267.989
263.832
259.676
255.519
251.363
247.207
243.051
238.894
234.738
230.582
226.426
222.27
218.115
213.959
209.803
205.647
201.491
197.335
193.179
189.023
184.867
180.712
176.556
172.4
168.244
164.088
159.932
155.776
151.621
147.465
143.309
139.153
134.997
130.841
126.686
122.53
118.374
114.218
110.062
105.906
101.75
97.5946
93.4388
89.283
85.1271
80.9713
76.8155
72.6598
68.504
64.3484
60.1927
56.0373
51.8819
47.7269
43.5722
39.4181
35.2648
31.1128
26.9626
22.8151
18.6708
14.5309
10.3927
6.27113
2.14861
424.686
413.806
409.691
404.378
399.691
394.899
390.294
385.746
381.287
376.882
372.527
368.209
363.923
359.662
355.421
351.197
346.986
342.785
338.593
334.408
330.228
326.053
321.882
317.713
313.547
309.383
305.221
301.059
296.899
292.74
288.581
284.423
280.265
276.108
271.95
267.794
263.637
259.48
255.324
251.168
247.011
242.855
238.699
234.543
230.387
226.231
222.075
217.919
213.763
209.607
205.452
201.296
197.14
192.984
188.828
184.672
180.516
176.36
172.205
168.049
163.893
159.737
155.581
151.425
147.269
143.114
138.958
134.802
130.646
126.49
122.334
118.179
114.023
109.867
105.711
101.555
97.3993
93.2435
89.0877
84.9319
80.776
76.6202
72.4645
68.3087
64.1531
59.9975
55.842
51.6866
47.5316
43.3769
39.2228
35.0695
30.9175
26.7673
22.6197
18.4754
14.3357
10.1981
6.07776
1.96699
423.404
413.803
409.643
404.299
399.612
394.816
390.211
385.662
381.203
376.797
372.441
368.124
363.837
359.576
355.335
351.11
346.899
342.698
338.506
334.321
330.141
325.966
321.795
317.626
313.46
309.296
305.134
300.972
296.812
292.653
288.494
284.336
280.178
276.021
271.864
267.707
263.55
259.393
255.237
251.081
246.924
242.768
238.612
234.456
230.3
226.144
221.988
217.832
213.676
209.52
205.365
201.209
197.053
192.897
188.741
184.585
180.429
176.274
172.118
167.962
163.806
159.65
155.494
151.338
147.183
143.027
138.871
134.715
130.559
126.403
122.247
118.092
113.936
109.78
105.624
101.468
97.3124
93.1566
89.0008
84.8449
80.6891
76.5333
72.3776
68.2218
64.0661
59.9105
55.755
51.5997
47.4446
43.29
39.1358
34.9826
30.8305
26.6803
22.5327
18.3884
14.2488
10.1113
5.99163
1.88586
422.885
413.895
409.68
404.316
399.629
394.828
390.224
385.674
381.214
376.807
372.452
368.133
363.847
359.585
355.344
351.119
346.908
342.707
338.515
334.33
330.15
325.975
321.803
317.635
313.469
309.305
305.142
300.981
296.821
292.661
288.502
284.344
280.186
276.029
271.872
267.715
263.558
259.402
255.245
251.089
246.933
242.777
238.621
234.465
230.309
226.153
221.997
217.841
213.685
209.529
205.373
201.217
197.061
192.905
188.749
184.594
180.438
176.282
172.126
167.97
163.814
159.659
155.503
151.347
147.191
143.035
138.879
134.723
130.568
126.412
122.256
118.1
113.944
109.788
105.633
101.477
97.3208
93.165
89.0092
84.8533
80.6975
76.5417
72.386
68.2302
64.0745
59.9189
55.7634
51.6081
47.453
43.2984
39.1442
34.9909
30.8389
26.6887
22.5411
18.3968
14.2572
10.1201
5.99924
1.89067
422.546
414.006
409.745
404.362
399.672
394.868
390.263
385.712
381.252
376.845
372.489
368.171
363.884
359.622
355.381
351.156
346.945
342.744
338.552
334.366
330.187
326.011
321.84
317.672
313.505
309.341
305.179
301.017
296.857
292.698
288.539
284.381
280.223
276.065
271.908
267.751
263.595
259.438
255.282
251.125
246.969
242.813
238.657
234.501
230.345
226.189
222.033
217.877
213.721
209.565
205.409
201.254
197.098
192.942
188.786
184.63
180.474
176.318
172.162
168.007
163.851
159.695
155.539
151.383
147.227
143.072
138.916
134.76
130.604
126.448
122.292
118.136
113.981
109.825
105.669
101.513
97.3572
93.2014
89.0456
84.8897
80.7339
76.5781
72.4224
68.2666
64.1109
59.9553
55.7998
51.6445
47.4894
43.3347
39.1806
35.0273
30.8752
26.725
22.5774
18.4331
14.2937
10.1563
6.03461
1.9217
422.241
414.101
409.811
404.412
399.717
394.908
390.304
385.752
381.292
376.885
372.529
368.21
363.923
359.661
355.42
351.195
346.983
342.782
338.59
334.405
330.225
326.05
321.878
317.71
313.544
309.38
305.217
301.056
296.895
292.736
288.577
284.419
280.261
276.104
271.947
267.79
263.633
259.477
255.32
251.164
247.008
242.851
238.695
234.539
230.383
226.227
222.071
217.915
213.76
209.604
205.448
201.292
197.136
192.98
188.824
184.668
180.513
176.357
172.201
168.045
163.889
159.733
155.577
151.422
147.266
143.11
138.954
134.798
130.642
126.486
122.331
118.175
114.019
109.863
105.707
101.551
97.3956
93.2398
89.0839
84.9281
80.7723
76.6165
72.4607
68.305
64.1493
59.9937
55.8382
51.6829
47.5278
43.3731
39.219
35.0657
30.9136
26.7633
22.6157
18.4714
14.332
10.1951
6.07232
1.95497
421.97
414.178
409.874
404.46
399.76
394.947
390.343
385.791
381.33
376.923
372.567
368.248
363.961
359.699
355.457
351.232
347.02
342.819
338.627
334.442
330.262
326.087
321.915
317.747
313.581
309.416
305.254
301.092
296.932
292.773
288.614
284.456
280.298
276.141
271.983
267.826
263.67
259.513
255.357
251.201
247.044
242.888
238.732
234.576
230.42
226.264
222.108
217.952
213.796
209.64
205.484
201.329
197.173
193.017
188.861
184.705
180.549
176.393
172.237
168.082
163.926
159.77
155.614
151.458
147.302
143.147
138.991
134.835
130.679
126.523
122.367
118.211
114.056
109.9
105.744
101.588
97.4323
93.2764
89.1206
84.9648
80.809
76.6532
72.4974
68.3416
64.186
60.0303
55.8749
51.7195
47.5644
43.4097
39.2556
35.1023
30.9502
26.7999
22.6523
18.5081
14.3688
10.2324
6.10816
1.98638
421.734
414.242
409.934
404.505
399.8
394.983
390.38
385.827
381.366
376.959
372.602
368.283
363.996
359.734
355.492
351.267
347.055
342.854
338.662
334.476
330.297
326.121
321.95
317.781
313.615
309.451
305.288
301.127
296.967
292.807
288.649
284.49
280.333
276.175
272.018
267.861
263.704
259.548
255.392
251.235
247.079
242.923
238.767
234.611
230.455
226.299
222.143
217.987
213.831
209.675
205.519
201.363
197.207
193.051
188.896
184.74
180.584
176.428
172.272
168.116
163.96
159.805
155.649
151.493
147.337
143.181
139.025
134.87
130.714
126.558
122.402
118.246
114.09
109.934
105.779
101.623
97.4669
93.3111
89.1553
84.9994
80.8436
76.6878
72.5321
68.3763
64.2206
60.065
55.9095
51.7542
47.5991
43.4444
39.2903
35.1369
30.9848
26.8346
22.6869
18.5428
14.4035
10.2677
6.14193
2.01579
421.529
414.293
409.988
404.549
399.836
395.017
390.414
385.86
381.4
376.992
372.635
368.316
364.029
359.767
355.525
351.3
347.088
342.887
338.694
334.509
330.329
326.154
321.982
317.814
313.648
309.483
305.321
301.159
296.999
292.84
288.681
284.523
280.365
276.207
272.05
267.893
263.737
259.58
255.424
251.268
247.111
242.955
238.799
234.643
230.487
226.331
222.175
218.019
213.863
209.707
205.551
201.396
197.24
193.084
188.928
184.772
180.616
176.46
172.304
168.149
163.993
159.837
155.681
151.525
147.369
143.214
139.058
134.902
130.746
126.59
122.434
118.278
114.123
109.967
105.811
101.655
97.4992
93.3434
89.1876
85.0317
80.8759
76.7201
72.5644
68.4086
64.2529
60.0973
55.9418
51.7865
47.6314
43.4767
39.3225
35.1692
31.0171
26.8668
22.7191
18.5751
14.4359
10.3008
6.17339
2.04303
421.349
414.335
410.038
404.589
399.87
395.047
390.444
385.89
381.43
377.022
372.665
368.346
364.059
359.797
355.555
351.33
347.118
342.916
338.724
334.539
330.359
326.184
322.012
317.843
313.677
309.513
305.35
301.189
297.029
292.869
288.711
284.552
280.395
276.237
272.08
267.923
263.766
259.61
255.453
251.297
247.141
242.985
238.829
234.673
230.517
226.361
222.205
218.049
213.893
209.737
205.581
201.425
197.269
193.113
188.958
184.802
180.646
176.49
172.334
168.178
164.022
159.867
155.711
151.555
147.399
143.243
139.087
134.931
130.776
126.62
122.464
118.308
114.152
109.996
105.841
101.685
97.5289
93.3731
89.2172
85.0614
80.9056
76.7498
72.594
68.4383
64.2826
60.127
55.9715
51.8161
47.6611
43.5063
39.3522
35.1989
31.0467
26.8964
22.7488
18.6048
14.4656
10.3313
6.20233
2.06797
421.192
414.368
410.084
404.626
399.9
395.075
390.472
385.918
381.458
377.05
372.693
368.374
364.086
359.824
355.582
351.357
347.145
342.944
338.751
334.566
330.386
326.211
322.039
317.87
313.704
309.54
305.377
301.216
297.056
292.896
288.738
284.579
280.422
276.264
272.107
267.95
263.793
259.637
255.48
251.324
247.168
243.012
238.856
234.7
230.544
226.388
222.232
218.076
213.92
209.764
205.608
201.452
197.296
193.14
188.985
184.829
180.673
176.517
172.361
168.205
164.049
159.894
155.738
151.582
147.426
143.27
139.114
134.958
130.803
126.647
122.491
118.335
114.179
110.023
105.868
101.712
97.5559
93.4
89.2442
85.0884
80.9326
76.7768
72.621
68.4653
64.3096
60.154
55.9985
51.8431
47.688
43.5333
39.3792
35.2258
31.0737
26.9234
22.7757
18.6318
14.4927
10.3591
6.22867
2.09056
421.056
414.395
410.124
404.66
399.928
395.099
390.497
385.943
381.483
377.074
372.718
368.398
364.111
359.848
355.607
351.381
347.169
342.968
338.775
334.59
330.41
326.235
322.063
317.895
313.729
309.564
305.402
301.24
297.08
292.921
288.762
284.604
280.446
276.288
272.131
267.974
263.818
259.661
255.505
251.348
247.192
243.036
238.88
234.724
230.568
226.412
222.256
218.1
213.944
209.788
205.632
201.476
197.321
193.165
189.009
184.853
180.697
176.541
172.385
168.23
164.074
159.918
155.762
151.606
147.45
143.294
139.139
134.983
130.827
126.671
122.515
118.359
114.204
110.048
105.892
101.736
97.5802
93.4243
89.2685
85.1127
80.9569
76.8011
72.6453
68.4895
64.3339
60.1782
56.0227
51.8674
47.7123
43.5576
39.4034
35.2501
31.098
26.9477
22.7999
18.6561
14.517
10.3842
6.2524
2.11084
420.939
414.416
410.159
404.69
399.952
395.121
390.519
385.965
381.505
377.096
372.74
368.42
364.133
359.87
355.628
351.403
347.191
342.99
338.797
334.612
330.432
326.256
322.085
317.916
313.75
309.586
305.423
301.262
297.102
292.942
288.783
284.625
280.467
276.31
272.153
267.996
263.839
259.683
255.526
251.37
247.214
243.058
238.902
234.746
230.589
226.434
222.278
218.122
213.966
209.81
205.654
201.498
197.342
193.186
189.03
184.875
180.719
176.563
172.407
168.251
164.095
159.939
155.784
151.628
147.472
143.316
139.16
135.004
130.848
126.693
122.537
118.381
114.225
110.069
105.913
101.758
97.6017
93.4459
89.2901
85.1343
80.9784
76.8226
72.6669
68.5111
64.3554
60.1998
56.0443
51.889
47.7339
43.5792
39.425
35.2717
31.1195
26.9692
22.8215
18.6777
14.5387
10.4067
6.27352
2.12882
420.839
414.432
410.19
404.717
399.973
395.14
390.538
385.984
381.524
377.116
372.759
368.439
364.152
359.889
355.647
351.422
347.21
343.009
338.816
334.631
330.451
326.275
322.104
317.935
313.769
309.605
305.442
301.281
297.121
292.961
288.802
284.644
280.486
276.329
272.172
268.015
263.858
259.702
255.545
251.389
247.233
243.077
238.92
234.764
230.608
226.452
222.296
218.141
213.985
209.829
205.673
201.517
197.361
193.205
189.049
184.893
180.738
176.582
172.426
168.27
164.114
159.958
155.802
151.647
147.491
143.335
139.179
135.023
130.867
126.712
122.556
118.4
114.244
110.088
105.932
101.776
97.6206
93.4648
89.309
85.1531
80.9973
76.8415
72.6858
68.53
64.3743
60.2187
56.0632
51.9079
47.7528
43.5981
39.4439
35.2905
31.1384
26.9881
22.8403
18.6967
14.5576
10.4264
6.29202
2.14452
420.756
414.445
410.216
404.74
399.991
395.156
390.555
386
381.541
377.132
372.775
368.456
364.168
359.906
355.664
351.438
347.226
343.025
338.832
334.647
330.467
326.292
322.12
317.951
313.785
309.621
305.458
301.297
297.137
292.977
288.819
284.66
280.503
276.345
272.188
268.031
263.874
259.718
255.561
251.405
247.249
243.093
238.937
234.781
230.625
226.469
222.313
218.157
214.001
209.845
205.689
201.533
197.377
193.221
189.065
184.91
180.754
176.598
172.442
168.286
164.13
159.975
155.819
151.663
147.507
143.351
139.195
135.039
130.884
126.728
122.572
118.416
114.26
110.104
105.949
101.793
97.6368
93.481
89.3252
85.1693
81.0135
76.8577
72.702
68.5462
64.3905
60.2349
56.0794
51.9241
47.769
43.6142
39.4601
35.3067
31.1546
27.0043
22.8565
18.7129
14.5739
10.4433
6.30789
2.15795
420.688
414.455
410.238
404.759
400.006
395.17
390.568
386.014
381.554
377.146
372.789
368.469
364.182
359.919
355.677
351.452
347.24
343.038
338.846
334.66
330.48
326.305
322.134
317.965
313.799
309.635
305.472
301.311
297.15
292.991
288.832
284.674
280.516
276.359
272.201
268.045
263.888
259.731
255.575
251.419
247.262
243.106
238.95
234.794
230.638
226.482
222.326
218.17
214.014
209.858
205.702
201.547
197.391
193.235
189.079
184.923
180.767
176.611
172.456
168.3
164.144
159.988
155.832
151.676
147.52
143.365
139.209
135.053
130.897
126.741
122.585
118.43
114.274
110.118
105.962
101.806
97.6503
93.4945
89.3387
85.1828
81.027
76.8712
72.7154
68.5597
64.404
60.2484
56.0929
51.9376
47.7825
43.6277
39.4736
35.3202
31.1681
27.0178
22.87
18.7264
14.5874
10.4574
6.32113
2.16914
420.635
414.462
410.255
404.775
400.018
395.181
390.579
386.025
381.565
377.157
372.8
368.48
364.193
359.93
355.688
351.463
347.251
343.049
338.857
334.671
330.491
326.316
322.144
317.976
313.81
309.645
305.483
301.321
297.161
293.002
288.843
284.685
280.527
276.369
272.212
268.055
263.899
259.742
255.586
251.429
247.273
243.117
238.961
234.805
230.649
226.493
222.337
218.181
214.025
209.869
205.713
201.557
197.402
193.246
189.09
184.934
180.778
176.622
172.466
168.31
164.155
159.999
155.843
151.687
147.531
143.375
139.22
135.064
130.908
126.752
122.596
118.44
114.284
110.129
105.973
101.817
97.6611
93.5053
89.3494
85.1936
81.0378
76.882
72.7262
68.5705
64.4148
60.2592
56.1037
51.9483
47.7933
43.6385
39.4844
35.331
31.1788
27.0286
22.8808
18.7373
14.5983
10.4687
6.33172
2.17807
420.596
414.467
410.268
404.786
400.027
395.189
390.587
386.033
381.574
377.165
372.808
368.488
364.201
359.938
355.696
351.471
347.259
343.057
338.865
334.679
330.499
326.324
322.152
317.984
313.818
309.653
305.491
301.33
297.169
293.01
288.851
284.693
280.535
276.377
272.22
268.063
263.907
259.75
255.594
251.437
247.281
243.125
238.969
234.813
230.657
226.501
222.345
218.189
214.033
209.877
205.721
201.565
197.41
193.254
189.098
184.942
180.786
176.63
172.474
168.319
164.163
160.007
155.851
151.695
147.539
143.383
139.228
135.072
130.916
126.76
122.604
118.448
114.293
110.137
105.981
101.825
97.6692
93.5134
89.3575
85.2017
81.0459
76.8901
72.7343
68.5786
64.4229
60.2673
56.1118
51.9564
47.8013
43.6466
39.4924
35.3391
31.1869
27.0366
22.8888
18.7454
14.6064
10.4772
6.33968
2.18477
420.57
414.47
410.276
404.794
400.033
395.194
390.593
386.038
381.579
377.17
372.813
368.494
364.206
359.944
355.702
351.476
347.264
343.063
338.87
334.685
330.505
326.329
322.158
317.989
313.823
309.659
305.496
301.335
297.175
293.015
288.856
284.698
280.54
276.383
272.226
268.069
263.912
259.756
255.599
251.443
247.287
243.131
238.974
234.818
230.662
226.506
222.35
218.194
214.039
209.883
205.727
201.571
197.415
193.259
189.103
184.947
180.792
176.636
172.48
168.324
164.168
160.012
155.856
151.701
147.545
143.389
139.233
135.077
130.921
126.766
122.61
118.454
114.298
110.142
105.986
101.83
97.6746
93.5188
89.3629
85.2071
81.0513
76.8955
72.7397
68.584
64.4283
60.2727
56.1172
51.9618
47.8067
43.652
39.4978
35.3445
31.1923
27.042
22.8942
18.7508
14.6118
10.4829
6.34498
2.18924
420.557
414.472
410.28
404.798
400.036
395.197
390.595
386.041
381.582
377.173
372.816
368.497
364.209
359.946
355.704
351.479
347.267
343.066
338.873
334.687
330.507
326.332
322.161
317.992
313.826
309.662
305.499
301.338
297.177
293.018
288.859
284.701
280.543
276.386
272.228
268.072
263.915
259.758
255.602
251.446
247.289
243.133
238.977
234.821
230.665
226.509
222.353
218.197
214.041
209.885
205.729
201.574
197.418
193.262
189.106
184.95
180.794
176.638
172.483
168.327
164.171
160.015
155.859
151.703
147.547
143.392
139.236
135.08
130.924
126.768
122.612
118.457
114.301
110.145
105.989
101.833
97.6773
93.5215
89.3656
85.2098
81.054
76.8982
72.7424
68.5867
64.431
60.2754
56.1199
51.9645
47.8094
43.6547
39.5005
35.3472
31.195
27.0447
22.8969
18.7535
14.6145
10.4858
6.34763
2.19147
420.557
414.472
410.28
404.798
400.036
395.197
390.595
386.041
381.582
377.173
372.816
368.497
364.209
359.946
355.704
351.479
347.267
343.066
338.873
334.687
330.507
326.332
322.161
317.992
313.826
309.662
305.499
301.338
297.177
293.018
288.859
284.701
280.543
276.386
272.228
268.072
263.915
259.758
255.602
251.446
247.289
243.133
238.977
234.821
230.665
226.509
222.353
218.197
214.041
209.885
205.729
201.574
197.418
193.262
189.106
184.95
180.794
176.638
172.483
168.327
164.171
160.015
155.859
151.703
147.547
143.392
139.236
135.08
130.924
126.768
122.612
118.457
114.301
110.145
105.989
101.833
97.6773
93.5215
89.3656
85.2098
81.054
76.8982
72.7424
68.5867
64.431
60.2754
56.1199
51.9645
47.8094
43.6547
39.5005
35.3472
31.195
27.0447
22.8969
18.7535
14.6145
10.4858
6.34763
2.19147
420.57
414.47
410.276
404.794
400.033
395.194
390.593
386.038
381.579
377.17
372.813
368.494
364.206
359.944
355.702
351.476
347.264
343.063
338.87
334.685
330.505
326.329
322.158
317.989
313.823
309.659
305.496
301.335
297.175
293.015
288.856
284.698
280.54
276.383
272.226
268.069
263.912
259.756
255.599
251.443
247.287
243.131
238.974
234.818
230.662
226.506
222.35
218.194
214.039
209.883
205.727
201.571
197.415
193.259
189.103
184.947
180.792
176.636
172.48
168.324
164.168
160.012
155.856
151.701
147.545
143.389
139.233
135.077
130.921
126.766
122.61
118.454
114.298
110.142
105.986
101.83
97.6746
93.5188
89.3629
85.2071
81.0513
76.8955
72.7397
68.584
64.4283
60.2727
56.1172
51.9618
47.8067
43.652
39.4978
35.3445
31.1923
27.042
22.8942
18.7508
14.6118
10.4829
6.34498
2.18924
420.596
414.467
410.268
404.786
400.027
395.189
390.587
386.033
381.574
377.165
372.808
368.488
364.201
359.938
355.696
351.471
347.259
343.057
338.865
334.679
330.499
326.324
322.152
317.984
313.818
309.653
305.491
301.33
297.169
293.01
288.851
284.693
280.535
276.377
272.22
268.063
263.907
259.75
255.594
251.437
247.281
243.125
238.969
234.813
230.657
226.501
222.345
218.189
214.033
209.877
205.721
201.565
197.41
193.254
189.098
184.942
180.786
176.63
172.474
168.319
164.163
160.007
155.851
151.695
147.539
143.383
139.228
135.072
130.916
126.76
122.604
118.448
114.293
110.137
105.981
101.825
97.6692
93.5134
89.3575
85.2017
81.0459
76.8901
72.7343
68.5786
64.4229
60.2673
56.1118
51.9564
47.8013
43.6466
39.4924
35.3391
31.1869
27.0366
22.8888
18.7454
14.6064
10.4772
6.33968
2.18477
420.635
414.462
410.255
404.775
400.018
395.181
390.579
386.025
381.565
377.157
372.8
368.48
364.193
359.93
355.688
351.463
347.251
343.049
338.857
334.671
330.491
326.316
322.144
317.976
313.81
309.645
305.483
301.321
297.161
293.002
288.843
284.685
280.527
276.369
272.212
268.055
263.899
259.742
255.586
251.429
247.273
243.117
238.961
234.805
230.649
226.493
222.337
218.181
214.025
209.869
205.713
201.557
197.402
193.246
189.09
184.934
180.778
176.622
172.466
168.31
164.155
159.999
155.843
151.687
147.531
143.375
139.22
135.064
130.908
126.752
122.596
118.44
114.284
110.129
105.973
101.817
97.6611
93.5053
89.3494
85.1936
81.0378
76.882
72.7262
68.5705
64.4148
60.2592
56.1037
51.9483
47.7933
43.6385
39.4844
35.331
31.1788
27.0286
22.8808
18.7373
14.5983
10.4687
6.33172
2.17807
420.688
414.455
410.238
404.759
400.006
395.17
390.568
386.014
381.554
377.146
372.789
368.469
364.182
359.919
355.677
351.452
347.24
343.038
338.846
334.66
330.48
326.305
322.134
317.965
313.799
309.635
305.472
301.311
297.15
292.991
288.832
284.674
280.516
276.359
272.201
268.045
263.888
259.731
255.575
251.419
247.262
243.106
238.95
234.794
230.638
226.482
222.326
218.17
214.014
209.858
205.702
201.547
197.391
193.235
189.079
184.923
180.767
176.611
172.456
168.3
164.144
159.988
155.832
151.676
147.52
143.365
139.209
135.053
130.897
126.741
122.585
118.43
114.274
110.118
105.962
101.806
97.6503
93.4945
89.3387
85.1828
81.027
76.8712
72.7154
68.5597
64.404
60.2484
56.0929
51.9376
47.7825
43.6277
39.4736
35.3202
31.1681
27.0178
22.87
18.7264
14.5874
10.4574
6.32113
2.16914
420.756
414.445
410.216
404.74
399.991
395.156
390.555
386
381.541
377.132
372.775
368.456
364.168
359.906
355.664
351.438
347.226
343.025
338.832
334.647
330.467
326.292
322.12
317.951
313.785
309.621
305.458
301.297
297.137
292.977
288.819
284.66
280.503
276.345
272.188
268.031
263.874
259.718
255.561
251.405
247.249
243.093
238.937
234.781
230.625
226.469
222.313
218.157
214.001
209.845
205.689
201.533
197.377
193.221
189.065
184.91
180.754
176.598
172.442
168.286
164.13
159.975
155.819
151.663
147.507
143.351
139.195
135.039
130.884
126.728
122.572
118.416
114.26
110.104
105.949
101.793
97.6368
93.481
89.3252
85.1693
81.0135
76.8577
72.702
68.5462
64.3905
60.2349
56.0794
51.9241
47.769
43.6142
39.4601
35.3067
31.1546
27.0043
22.8565
18.7129
14.5739
10.4433
6.30789
2.15795
420.839
414.432
410.19
404.717
399.973
395.14
390.538
385.984
381.524
377.116
372.759
368.439
364.152
359.889
355.647
351.422
347.21
343.009
338.816
334.631
330.451
326.275
322.104
317.935
313.769
309.605
305.442
301.281
297.121
292.961
288.802
284.644
280.486
276.329
272.172
268.015
263.858
259.702
255.545
251.389
247.233
243.077
238.92
234.764
230.608
226.452
222.296
218.141
213.985
209.829
205.673
201.517
197.361
193.205
189.049
184.893
180.738
176.582
172.426
168.27
164.114
159.958
155.802
151.647
147.491
143.335
139.179
135.023
130.867
126.712
122.556
118.4
114.244
110.088
105.932
101.776
97.6206
93.4648
89.309
85.1531
80.9973
76.8415
72.6858
68.53
64.3743
60.2187
56.0632
51.9079
47.7528
43.5981
39.4439
35.2905
31.1384
26.9881
22.8403
18.6967
14.5576
10.4264
6.29202
2.14452
420.939
414.416
410.159
404.69
399.952
395.121
390.519
385.965
381.505
377.096
372.74
368.42
364.133
359.87
355.628
351.403
347.191
342.99
338.797
334.612
330.432
326.256
322.085
317.916
313.75
309.586
305.423
301.262
297.102
292.942
288.783
284.625
280.467
276.31
272.153
267.996
263.839
259.683
255.526
251.37
247.214
243.058
238.902
234.746
230.589
226.434
222.278
218.122
213.966
209.81
205.654
201.498
197.342
193.186
189.03
184.875
180.719
176.563
172.407
168.251
164.095
159.939
155.784
151.628
147.472
143.316
139.16
135.004
130.848
126.693
122.537
118.381
114.225
110.069
105.913
101.758
97.6017
93.4459
89.2901
85.1343
80.9784
76.8226
72.6669
68.5111
64.3554
60.1998
56.0443
51.889
47.7339
43.5792
39.425
35.2717
31.1195
26.9692
22.8215
18.6777
14.5387
10.4067
6.27352
2.12881
421.056
414.395
410.124
404.66
399.928
395.099
390.497
385.943
381.483
377.074
372.718
368.398
364.111
359.848
355.607
351.381
347.169
342.968
338.775
334.59
330.41
326.235
322.063
317.895
313.729
309.564
305.402
301.24
297.08
292.921
288.762
284.604
280.446
276.288
272.131
267.974
263.818
259.661
255.505
251.348
247.192
243.036
238.88
234.724
230.568
226.412
222.256
218.1
213.944
209.788
205.632
201.476
197.321
193.165
189.009
184.853
180.697
176.541
172.385
168.23
164.074
159.918
155.762
151.606
147.45
143.294
139.139
134.983
130.827
126.671
122.515
118.359
114.204
110.048
105.892
101.736
97.5802
93.4243
89.2685
85.1127
80.9569
76.8011
72.6453
68.4895
64.3339
60.1782
56.0227
51.8674
47.7123
43.5576
39.4034
35.2501
31.098
26.9477
22.7999
18.6561
14.517
10.3842
6.2524
2.11084
421.192
414.368
410.084
404.626
399.9
395.075
390.472
385.918
381.458
377.05
372.693
368.374
364.086
359.824
355.582
351.357
347.145
342.944
338.751
334.566
330.386
326.211
322.039
317.87
313.704
309.54
305.377
301.216
297.056
292.896
288.738
284.579
280.422
276.264
272.107
267.95
263.793
259.637
255.48
251.324
247.168
243.012
238.856
234.7
230.544
226.388
222.232
218.076
213.92
209.764
205.608
201.452
197.296
193.14
188.985
184.829
180.673
176.517
172.361
168.205
164.049
159.894
155.738
151.582
147.426
143.27
139.114
134.958
130.803
126.647
122.491
118.335
114.179
110.023
105.868
101.712
97.5559
93.4
89.2442
85.0884
80.9326
76.7768
72.621
68.4653
64.3096
60.154
55.9985
51.8431
47.688
43.5333
39.3792
35.2258
31.0737
26.9234
22.7757
18.6318
14.4927
10.3591
6.22867
2.09056
421.349
414.335
410.038
404.589
399.87
395.047
390.444
385.89
381.43
377.022
372.665
368.346
364.059
359.797
355.555
351.33
347.118
342.916
338.724
334.539
330.359
326.184
322.012
317.843
313.677
309.513
305.35
301.189
297.029
292.869
288.711
284.552
280.395
276.237
272.08
267.923
263.766
259.61
255.453
251.297
247.141
242.985
238.829
234.673
230.517
226.361
222.205
218.049
213.893
209.737
205.581
201.425
197.269
193.113
188.958
184.802
180.646
176.49
172.334
168.178
164.022
159.867
155.711
151.555
147.399
143.243
139.087
134.931
130.776
126.62
122.464
118.308
114.152
109.996
105.841
101.685
97.5289
93.3731
89.2172
85.0614
80.9056
76.7498
72.594
68.4383
64.2826
60.127
55.9715
51.8161
47.6611
43.5063
39.3522
35.1989
31.0467
26.8964
22.7488
18.6048
14.4656
10.3313
6.20233
2.06797
421.529
414.293
409.988
404.549
399.836
395.017
390.414
385.86
381.4
376.992
372.635
368.316
364.029
359.767
355.525
351.3
347.088
342.887
338.694
334.509
330.329
326.154
321.982
317.814
313.648
309.483
305.321
301.159
296.999
292.84
288.681
284.523
280.365
276.207
272.05
267.893
263.737
259.58
255.424
251.268
247.111
242.955
238.799
234.643
230.487
226.331
222.175
218.019
213.863
209.707
205.551
201.396
197.24
193.084
188.928
184.772
180.616
176.46
172.304
168.149
163.993
159.837
155.681
151.525
147.369
143.214
139.058
134.902
130.746
126.59
122.434
118.278
114.123
109.967
105.811
101.655
97.4992
93.3434
89.1876
85.0317
80.8759
76.7201
72.5644
68.4086
64.2529
60.0973
55.9418
51.7865
47.6314
43.4767
39.3225
35.1692
31.0171
26.8668
22.7191
18.5751
14.4359
10.3008
6.17339
2.04303
421.734
414.242
409.934
404.505
399.8
394.983
390.38
385.827
381.366
376.959
372.602
368.283
363.996
359.734
355.492
351.267
347.055
342.854
338.662
334.476
330.297
326.121
321.95
317.781
313.615
309.451
305.288
301.127
296.967
292.807
288.649
284.49
280.333
276.175
272.018
267.861
263.704
259.548
255.392
251.235
247.079
242.923
238.767
234.611
230.455
226.299
222.143
217.987
213.831
209.675
205.519
201.363
197.207
193.051
188.896
184.74
180.584
176.428
172.272
168.116
163.96
159.805
155.649
151.493
147.337
143.181
139.025
134.87
130.714
126.558
122.402
118.246
114.09
109.934
105.779
101.623
97.4669
93.3111
89.1553
84.9994
80.8436
76.6878
72.5321
68.3763
64.2206
60.065
55.9095
51.7542
47.5991
43.4444
39.2903
35.1369
30.9848
26.8346
22.6869
18.5428
14.4035
10.2677
6.14193
2.01578
421.97
414.178
409.874
404.46
399.76
394.947
390.343
385.791
381.33
376.923
372.567
368.248
363.961
359.699
355.457
351.232
347.02
342.819
338.627
334.442
330.262
326.087
321.915
317.747
313.581
309.416
305.254
301.092
296.932
292.773
288.614
284.456
280.298
276.141
271.983
267.826
263.67
259.513
255.357
251.201
247.044
242.888
238.732
234.576
230.42
226.264
222.108
217.952
213.796
209.64
205.484
201.329
197.173
193.017
188.861
184.705
180.549
176.393
172.237
168.082
163.926
159.77
155.614
151.458
147.302
143.147
138.991
134.835
130.679
126.523
122.367
118.211
114.056
109.9
105.744
101.588
97.4323
93.2764
89.1206
84.9648
80.809
76.6532
72.4974
68.3416
64.186
60.0303
55.8749
51.7195
47.5644
43.4097
39.2556
35.1023
30.9502
26.7999
22.6523
18.5081
14.3688
10.2324
6.10816
1.98638
422.241
414.101
409.811
404.412
399.717
394.908
390.304
385.752
381.292
376.885
372.529
368.21
363.923
359.661
355.42
351.195
346.983
342.782
338.59
334.405
330.225
326.05
321.878
317.71
313.544
309.38
305.217
301.056
296.895
292.736
288.577
284.419
280.261
276.104
271.947
267.79
263.633
259.477
255.32
251.164
247.008
242.851
238.695
234.539
230.383
226.227
222.071
217.915
213.76
209.604
205.448
201.292
197.136
192.98
188.824
184.668
180.513
176.357
172.201
168.045
163.889
159.733
155.577
151.422
147.266
143.11
138.954
134.798
130.642
126.486
122.331
118.175
114.019
109.863
105.707
101.551
97.3956
93.2398
89.0839
84.9281
80.7723
76.6165
72.4607
68.305
64.1493
59.9937
55.8382
51.6829
47.5278
43.3731
39.219
35.0657
30.9136
26.7633
22.6157
18.4714
14.332
10.1951
6.07232
1.95497
422.547
414.006
409.745
404.362
399.672
394.868
390.263
385.712
381.252
376.845
372.489
368.171
363.884
359.622
355.381
351.156
346.945
342.744
338.552
334.366
330.187
326.011
321.84
317.672
313.505
309.341
305.179
301.017
296.857
292.698
288.539
284.381
280.223
276.065
271.908
267.751
263.595
259.438
255.282
251.125
246.969
242.813
238.657
234.501
230.345
226.189
222.033
217.877
213.721
209.565
205.409
201.254
197.098
192.942
188.786
184.63
180.474
176.318
172.162
168.007
163.851
159.695
155.539
151.383
147.227
143.072
138.916
134.76
130.604
126.448
122.292
118.136
113.981
109.825
105.669
101.513
97.3572
93.2014
89.0456
84.8897
80.7339
76.5781
72.4224
68.2666
64.1109
59.9553
55.7998
51.6445
47.4894
43.3347
39.1806
35.0273
30.8752
26.725
22.5774
18.4331
14.2937
10.1563
6.03461
1.9217
422.885
413.895
409.68
404.316
399.629
394.828
390.224
385.674
381.214
376.807
372.452
368.133
363.847
359.585
355.344
351.119
346.908
342.707
338.515
334.33
330.15
325.975
321.803
317.635
313.469
309.305
305.142
300.981
296.821
292.661
288.502
284.344
280.186
276.029
271.872
267.715
263.558
259.402
255.245
251.089
246.933
242.777
238.621
234.465
230.309
226.153
221.997
217.841
213.685
209.529
205.373
201.217
197.061
192.905
188.749
184.594
180.438
176.282
172.126
167.97
163.814
159.659
155.503
151.347
147.191
143.035
138.879
134.723
130.568
126.412
122.256
118.1
113.944
109.788
105.633
101.477
97.3208
93.165
89.0092
84.8533
80.6975
76.5417
72.386
68.2302
64.0745
59.9189
55.7634
51.6081
47.453
43.2984
39.1442
34.9909
30.8389
26.6887
22.5411
18.3968
14.2572
10.1201
5.99924
1.89067
423.404
413.803
409.643
404.299
399.612
394.816
390.211
385.662
381.203
376.797
372.441
368.124
363.837
359.576
355.335
351.11