/*--------------------------------*- C++ -*----------------------------------*\
  =========                 |
  \\      /  F ield         | OpenFOAM: The Open Source CFD Toolbox
   \\    /   O peration     | Website:  https://openfoam.org
    \\  /    A nd           | Version:  7
     \\/     M anipulation  |
\*---------------------------------------------------------------------------*/
FoamFile
{
    version     2.0;
    format      ascii;
    class       surfaceScalarField;
    location    "4";
    object      phi;
}
// * * * * * * * * * * * * * * * * * * * * * * * * * * * * * * * * * * * * * //

dimensions      [0 3 -1 0 0 0 0];

internalField   nonuniform List<scalar> 
7860
(
0.00283432
0.00216568
0.00262119
0.000213134
0.00260884
1.23551e-05
0.00260634
2.49402e-06
0.00260906
-2.72084e-06
0.00260779
1.26795e-06
0.0026067
1.09643e-06
0.00260513
1.56537e-06
0.00260392
1.21683e-06
0.00260284
1.08002e-06
0.00260197
8.61019e-07
0.00260125
7.21236e-07
0.00260066
5.91206e-07
0.00260017
4.94032e-07
0.00259976
4.11603e-07
0.00259941
3.46599e-07
0.00259912
2.92845e-07
0.00259887
2.4893e-07
0.00259866
2.12487e-07
0.00259847
1.81977e-07
0.00259832
1.55863e-07
0.00259818
1.33913e-07
0.00259807
1.14995e-07
0.00259797
9.87095e-08
0.00259789
8.45834e-08
0.00259781
7.2685e-08
0.00259775
6.21962e-08
0.0025977
5.32312e-08
0.00259765
4.54044e-08
0.00259761
3.88201e-08
0.00259758
3.28827e-08
0.00259755
2.80015e-08
0.00259753
2.37022e-08
0.00259751
2.01329e-08
0.00259749
1.6924e-08
0.00259748
1.43879e-08
0.00259746
1.20176e-08
0.00259745
1.01833e-08
0.00259745
8.46264e-09
0.00259744
7.20466e-09
0.00259743
5.90885e-09
0.00259743
5.03449e-09
0.00259742
4.14192e-09
0.00259742
3.53477e-09
0.00259742
2.84497e-09
0.00259741
2.47144e-09
0.00259741
1.96664e-09
0.00259741
1.71601e-09
0.00259741
1.32368e-09
0.00259741
1.23264e-09
0.00259741
9.05042e-10
0.00259741
8.32832e-10
0.00259741
6.12016e-10
0.00259741
6.19413e-10
0.0025974
4.24632e-10
0.0025974
4.49735e-10
0.0025974
2.90094e-10
0.0025974
3.5247e-10
0.0025974
1.81824e-10
0.0025974
2.42926e-10
0.0025974
7.51705e-11
0.0025974
1.49819e-10
0.0025974
1.22371e-11
0.0025974
7.95357e-11
0.0025974
-4.01176e-11
0.0025974
6.66596e-11
0.0025974
-4.03316e-11
0.0025974
5.56857e-11
0.0025974
-4.54429e-11
0.0025974
7.24921e-11
0.0025974
-3.78633e-11
0.0025974
5.58741e-11
0.0025974
-1.70371e-11
0.0025974
8.79592e-11
0.0025974
1.83843e-11
0.0025974
1.31733e-10
0.0025974
1.18151e-10
0.0025974
2.64546e-10
0.0025974
2.66697e-10
0.0025974
4.86534e-10
0.0025974
5.91899e-10
0.0025974
9.08143e-10
0.0025974
1.19149e-09
0.0025974
1.75301e-09
0.00259739
2.441e-09
0.00259739
3.52534e-09
0.00259739
4.95927e-09
0.00259738
7.11204e-09
0.00259737
1.00393e-08
0.00259735
1.41322e-08
0.00259733
1.95405e-08
0.00259731
2.61798e-08
0.00259727
3.35285e-08
0.00259724
3.75391e-08
0.0025972
3.34329e-08
0.00259718
2.27015e-08
0.00259708
1.01569e-07
0.00259638
6.95963e-07
0.00259378
2.60236e-06
-1.19041e-06
0.00456761
0.00259807
0.00437532
0.00040542
0.00434651
4.11624e-05
0.00434276
6.25047e-06
0.00434577
-5.73427e-06
0.00434425
2.79195e-06
0.00434263
2.71645e-06
0.00434043
3.76209e-06
0.00433865
2.99698e-06
0.00433708
2.64734e-06
0.00433582
2.12501e-06
0.00433476
1.77763e-06
0.00433389
1.45996e-06
0.00433317
1.22014e-06
0.00433256
1.01704e-06
0.00433205
8.56854e-07
0.00433162
7.24725e-07
0.00433125
6.16834e-07
0.00433094
5.2744e-07
0.00433067
4.52647e-07
0.00433043
3.88589e-07
0.00433023
3.34631e-07
0.00433006
2.88223e-07
0.00432991
2.48171e-07
0.00432978
2.13375e-07
0.00432967
1.83988e-07
0.00432957
1.58131e-07
0.00432949
1.35916e-07
0.00432942
1.16439e-07
0.00432936
1.00035e-07
0.00432931
8.52468e-08
0.00432926
7.29196e-08
0.00432922
6.21178e-08
0.00432919
5.30642e-08
0.00432916
4.48955e-08
0.00432914
3.83741e-08
0.00432912
3.22911e-08
0.0043291
2.74846e-08
0.00432908
2.30326e-08
0.00432907
1.96907e-08
0.00432906
1.63279e-08
0.00432905
1.39309e-08
0.00432905
1.15917e-08
0.00432904
9.94945e-09
0.00432903
8.10416e-09
0.00432903
7.03768e-09
0.00432902
5.69947e-09
0.00432902
4.95132e-09
0.00432902
3.91069e-09
0.00432902
3.57988e-09
0.00432901
2.75882e-09
0.00432901
2.47465e-09
0.00432901
1.88738e-09
0.00432901
1.88265e-09
0.00432901
1.40379e-09
0.00432901
1.3965e-09
0.00432901
1.01137e-09
0.00432901
1.11067e-09
0.00432901
6.81883e-10
0.00432901
7.63528e-10
0.00432901
3.20039e-10
0.004329
4.40051e-10
0.004329
8.18073e-11
0.004329
1.94108e-10
0.004329
-9.21998e-11
0.004329
1.26869e-10
0.004329
-9.6153e-11
0.004329
1.02255e-10
0.004329
-1.18614e-10
0.004329
1.60093e-10
0.004329
-8.78866e-11
0.004329
1.1453e-10
0.004329
-3.09716e-11
0.004329
2.15162e-10
0.004329
8.34532e-11
0.004329
3.37595e-10
0.004329
3.43782e-10
0.004329
7.09069e-10
0.004329
7.33889e-10
0.004329
1.26811e-09
0.004329
1.55483e-09
0.004329
2.33323e-09
0.004329
3.07232e-09
0.00432899
4.44386e-09
0.00432899
6.20259e-09
0.00432899
8.91002e-09
0.00432898
1.25162e-08
0.00432897
1.78939e-08
0.00432895
2.52353e-08
0.00432893
3.54822e-08
0.0043289
4.9115e-08
0.00432886
6.60428e-08
0.00432881
8.58296e-08
0.00432875
9.98809e-08
0.00432867
1.04689e-07
0.00432859
1.11356e-07
0.00432827
4.17249e-07
0.00432694
2.02805e-06
0.00432236
7.18206e-06
7.90961e-06
0.00507199
0.00252608
0.00495541
0.000521998
0.00492274
7.38394e-05
0.00492048
8.5047e-06
0.00492232
-7.57015e-06
0.00492117
3.93829e-06
0.00491951
4.37955e-06
0.00491745
5.82429e-06
0.0049157
4.74386e-06
0.00491418
4.16385e-06
0.00491295
3.36154e-06
0.00491192
2.8069e-06
0.00491107
2.30819e-06
0.00491036
1.92713e-06
0.00490977
1.60795e-06
0.00490927
1.35488e-06
0.00490885
1.14689e-06
0.00490849
9.77181e-07
0.00490818
8.36768e-07
0.00490791
7.19375e-07
0.00490768
6.18885e-07
0.00490748
5.34045e-07
0.00490731
4.61153e-07
0.00490716
3.98201e-07
0.00490703
3.43443e-07
0.00490692
2.96999e-07
0.00490682
2.56231e-07
0.00490673
2.211e-07
0.00490666
1.9013e-07
0.0049066
1.63974e-07
0.00490654
1.40467e-07
0.00490649
1.20647e-07
0.00490645
1.03282e-07
0.00490642
8.86515e-08
0.00490639
7.54281e-08
0.00490636
6.47421e-08
0.00490634
5.48132e-08
0.00490632
4.68305e-08
0.0049063
3.94972e-08
0.00490629
3.38637e-08
0.00490627
2.83089e-08
0.00490626
2.42065e-08
0.00490626
2.02878e-08
0.00490625
1.74861e-08
0.00490624
1.43915e-08
0.00490624
1.24938e-08
0.00490623
1.02402e-08
0.00490623
8.88576e-09
0.00490622
7.14027e-09
0.00490622
6.4544e-09
0.00490622
5.13549e-09
0.00490622
4.55627e-09
0.00490621
3.55636e-09
0.00490621
3.50248e-09
0.00490621
2.76787e-09
0.00490621
2.66781e-09
0.00490621
2.05718e-09
0.00490621
2.13911e-09
0.00490621
1.44338e-09
0.00490621
1.47003e-09
0.00490621
7.22625e-10
0.00490621
8.05787e-10
0.00490621
2.10532e-10
0.00490621
3.08388e-10
0.00490621
-1.33024e-10
0.00490621
1.47846e-10
0.00490621
-1.47711e-10
0.00490621
1.21324e-10
0.00490621
-1.92896e-10
0.00490621
2.2316e-10
0.00490621
-1.20658e-10
0.00490621
1.5346e-10
0.00490621
-2.93151e-11
0.0049062
3.47635e-10
0.0049062
1.96802e-10
0.0049062
5.75794e-10
0.0049062
6.35206e-10
0.0049062
1.21869e-09
0.0049062
1.29725e-09
0.0049062
2.1188e-09
0.0049062
2.61457e-09
0.0049062
3.83834e-09
0.0049062
5.06684e-09
0.00490619
7.22854e-09
0.00490619
1.00832e-08
0.00490619
1.44183e-08
0.00490618
2.02155e-08
0.00490617
2.87999e-08
0.00490615
4.05711e-08
0.00490613
5.69688e-08
0.0049061
7.89719e-08
0.00490606
1.06617e-07
0.004906
1.40708e-07
0.00490593
1.69646e-07
0.00490584
2.00485e-07
0.00490569
2.56756e-07
0.00490522
8.91304e-07
0.0049036
3.64786e-06
0.00489776
1.30248e-05
2.27383e-05
0.00520988
0.0023162
0.00513955
0.000592325
0.00511247
0.000100919
0.00511134
9.63909e-06
0.00511243
-8.65543e-06
0.00511159
4.76904e-06
0.00511013
5.84099e-06
0.0051084
7.55872e-06
0.00510689
6.25176e-06
0.00510559
5.46524e-06
0.00510452
4.43011e-06
0.00510363
3.69459e-06
0.0051029
3.04053e-06
0.00510229
2.53833e-06
0.00510178
2.11805e-06
0.00510135
1.78529e-06
0.00510098
1.5124e-06
0.00510067
1.28996e-06
0.0051004
1.1061e-06
0.00510017
9.52463e-07
0.00509997
8.21077e-07
0.00509979
7.09932e-07
0.00509964
6.14437e-07
0.0050995
5.31991e-07
0.00509939
4.60212e-07
0.00509928
3.99032e-07
0.0050992
3.45411e-07
0.00509912
2.99192e-07
0.00509905
2.58163e-07
0.00509899
2.23369e-07
0.00509894
1.92234e-07
0.00509889
1.65765e-07
0.00509885
1.42482e-07
0.00509882
1.22816e-07
0.00509879
1.05021e-07
0.00509876
9.04749e-08
0.00509874
7.69897e-08
0.00509872
6.60055e-08
0.00509871
5.59482e-08
0.00509869
4.80837e-08
0.00509868
4.04387e-08
0.00509867
3.46761e-08
0.00509866
2.92027e-08
0.00509865
2.52535e-08
0.00509864
2.09631e-08
0.00509864
1.82103e-08
0.00509863
1.50487e-08
0.00509863
1.30686e-08
0.00509863
1.06365e-08
0.00509862
9.53244e-09
0.00509862
7.74715e-09
0.00509862
6.86231e-09
0.00509862
5.43602e-09
0.00509861
5.30204e-09
0.00509861
4.36545e-09
0.00509861
4.15433e-09
0.00509861
3.32091e-09
0.00509861
3.34752e-09
0.00509861
2.38841e-09
0.00509861
2.30131e-09
0.00509861
1.24182e-09
0.00509861
1.21537e-09
0.00509861
3.73348e-10
0.00509861
4.10455e-10
0.00509861
-1.74257e-10
0.00509861
1.27297e-10
0.00509861
-2.10906e-10
0.00509861
1.13938e-10
0.00509861
-2.73449e-10
0.00509861
2.48553e-10
0.00509861
-1.44779e-10
0.00509861
1.749e-10
0.00509861
-2.34192e-11
0.00509861
4.7903e-10
0.0050986
3.41779e-10
0.0050986
8.37047e-10
0.0050986
9.63805e-10
0.0050986
1.74574e-09
0.0050986
1.89672e-09
0.0050986
2.9522e-09
0.0050986
3.64729e-09
0.0050986
5.25836e-09
0.0050986
6.94199e-09
0.0050986
9.80446e-09
0.00509859
1.36383e-08
0.00509859
1.94291e-08
0.00509858
2.71787e-08
0.00509857
3.8588e-08
0.00509856
5.42965e-08
0.00509854
7.61567e-08
0.00509851
1.05783e-07
0.00509847
1.43507e-07
0.00509842
1.92506e-07
0.00509835
2.40321e-07
0.00509824
3.11377e-07
0.00509805
4.41464e-07
0.00509749
1.45883e-06
0.00509583
5.30097e-06
0.00508957
1.92886e-05
3.78139e-05
0.00523327
0.00208293
0.00519416
0.000631436
0.0051735
0.000121577
0.00517317
9.96495e-06
0.00517379
-9.27362e-06
0.00517327
5.29491e-06
0.00517208
7.02346e-06
0.00517072
8.92369e-06
0.00516951
7.46161e-06
0.00516847
6.50813e-06
0.00516761
5.29118e-06
0.00516689
4.41029e-06
0.0051663
3.63172e-06
0.00516581
3.02888e-06
0.0051654
2.52989e-06
0.00516505
2.13362e-06
0.00516475
1.80893e-06
0.0051645
1.54453e-06
0.00516428
1.32614e-06
0.00516409
1.14367e-06
0.00516392
9.87804e-07
0.00516377
8.55746e-07
0.00516365
7.42176e-07
0.00516353
6.44207e-07
0.00516343
5.5887e-07
0.00516335
4.85762e-07
0.00516327
4.21686e-07
0.0051632
3.66592e-07
0.00516314
3.17291e-07
0.00516309
2.7529e-07
0.00516305
2.37884e-07
0.00516301
2.05906e-07
0.00516297
1.77595e-07
0.00516294
1.53643e-07
0.00516291
1.31961e-07
0.00516289
1.1406e-07
0.00516287
9.74683e-08
0.00516285
8.38226e-08
0.00516284
7.1328e-08
0.00516282
6.14241e-08
0.00516281
5.18922e-08
0.0051628
4.46257e-08
0.00516279
3.77113e-08
0.00516278
3.26936e-08
0.00516278
2.73299e-08
0.00516277
2.37668e-08
0.00516277
1.97576e-08
0.00516276
1.71824e-08
0.00516276
1.41248e-08
0.00516276
1.25845e-08
0.00516275
1.03747e-08
0.00516275
9.2234e-09
0.00516275
7.38527e-09
0.00516275
7.14767e-09
0.00516275
6.06227e-09
0.00516274
5.75601e-09
0.00516274
4.7056e-09
0.00516274
4.65256e-09
0.00516274
3.44208e-09
0.00516274
3.19882e-09
0.00516274
1.832e-09
0.00516274
1.64321e-09
0.00516274
5.44185e-10
0.00516274
4.90072e-10
0.00516274
-2.33497e-10
0.00516274
6.44055e-11
0.00516274
-3.05652e-10
0.00516274
7.48127e-11
0.00516274
-3.70321e-10
0.00516274
2.2722e-10
0.00516274
-1.7784e-10
0.00516274
1.82038e-10
0.00516274
-2.45293e-11
0.00516274
6.05894e-10
0.00516274
5.04464e-10
0.00516274
1.11446e-09
0.00516274
1.3096e-09
0.00516274
2.26255e-09
0.00516274
2.49098e-09
0.00516274
3.72588e-09
0.00516273
4.58886e-09
0.00516273
6.5214e-09
0.00516273
8.59575e-09
0.00516273
1.20553e-08
0.00516273
1.67014e-08
0.00516272
2.37247e-08
0.00516272
3.3093e-08
0.00516271
4.68387e-08
0.0051627
6.58281e-08
0.00516268
9.22664e-08
0.00516266
1.28479e-07
0.00516263
1.75285e-07
0.00516258
2.39024e-07
0.00516251
3.08437e-07
0.00516239
4.29216e-07
0.00516219
6.48338e-07
0.0051616
2.04282e-06
0.00516004
6.86758e-06
0.00515415
2.51723e-05
5.09447e-05
0.00522258
0.00186035
0.00520653
0.000647483
0.00519181
0.000136302
0.00519202
9.74665e-06
0.00519236
-9.61105e-06
0.00519211
5.55189e-06
0.00519122
7.9081e-06
0.00519023
9.91815e-06
0.00518932
8.36722e-06
0.00518854
7.28753e-06
0.00518789
5.94014e-06
0.00518735
4.95018e-06
0.00518691
4.0787e-06
0.00518653
3.40043e-06
0.00518622
2.84214e-06
0.00518596
2.39855e-06
0.00518573
2.03526e-06
0.00518554
1.73968e-06
0.00518537
1.49562e-06
0.00518522
1.29167e-06
0.00518509
1.11763e-06
0.00518497
9.7004e-07
0.00518487
8.429e-07
0.00518478
7.33337e-07
0.0051847
6.37879e-07
0.00518463
5.55715e-07
0.00518457
4.8359e-07
0.00518452
4.21478e-07
0.00518447
3.65939e-07
0.00518443
3.18384e-07
0.00518439
2.76082e-07
0.00518435
2.3982e-07
0.00518432
2.07465e-07
0.0051843
1.80049e-07
0.00518427
1.55234e-07
0.00518425
1.34576e-07
0.00518423
1.15399e-07
0.00518422
9.95171e-08
0.00518421
8.4941e-08
0.00518419
7.32643e-08
0.00518418
6.21084e-08
0.00518417
5.3554e-08
0.00518417
4.53782e-08
0.00518416
3.9411e-08
0.00518415
3.31357e-08
0.00518415
2.88419e-08
0.00518414
2.40848e-08
0.00518414
2.09809e-08
0.00518414
1.73891e-08
0.00518413
1.54343e-08
0.00518413
1.2845e-08
0.00518413
1.14967e-08
0.00518413
9.28895e-09
0.00518413
8.93526e-09
0.00518412
7.74296e-09
0.00518412
7.37983e-09
0.00518412
6.12534e-09
0.00518412
5.97946e-09
0.00518412
4.53761e-09
0.00518412
4.11218e-09
0.00518412
2.45023e-09
0.00518412
2.0697e-09
0.00518412
7.02841e-10
0.00518412
5.40923e-10
0.00518412
-3.24894e-10
0.00518412
-4.00743e-11
0.00518412
-4.46882e-10
0.00518412
-3.54947e-12
0.00518412
-4.92013e-10
0.00518412
1.56567e-10
0.00518412
-2.3638e-10
0.00518412
1.78396e-10
0.00518412
-3.72655e-11
0.00518412
7.27134e-10
0.00518412
6.76917e-10
0.00518412
1.40397e-09
0.00518412
1.65858e-09
0.00518411
2.75266e-09
0.00518411
3.05025e-09
0.00518411
4.41657e-09
0.00518411
5.40366e-09
0.00518411
7.59327e-09
0.00518411
9.98098e-09
0.00518411
1.3934e-08
0.00518411
1.92066e-08
0.0051841
2.72306e-08
0.0051841
3.78562e-08
0.00518409
5.34238e-08
0.00518408
7.49928e-08
0.00518407
1.05083e-07
0.00518405
1.46739e-07
0.00518402
2.01449e-07
0.00518398
2.7919e-07
0.00518392
3.70731e-07
0.0051838
5.4607e-07
0.00518359
8.58624e-07
0.00518302
2.61309e-06
0.00518165
8.24646e-06
0.0051766
3.02172e-05
6.15774e-05
0.00520393
0.00165641
0.00520546
0.000645957
0.00519606
0.000145698
0.00519664
9.17429e-06
0.00519679
-9.76635e-06
0.00519677
5.57767e-06
0.00519617
8.50118e-06
0.00519553
1.05642e-05
0.00519491
8.98002e-06
0.00519439
7.81449e-06
0.00519394
6.38444e-06
0.00519357
5.32068e-06
0.00519326
4.38689e-06
0.00519301
3.65739e-06
0.00519279
3.05864e-06
0.00519261
2.583e-06
0.00519245
2.19364e-06
0.00519231
1.87709e-06
0.00519219
1.61579e-06
0.00519208
1.3973e-06
0.00519199
1.21101e-06
0.00519191
1.05298e-06
0.00519183
9.16554e-07
0.00519177
7.99104e-07
0.00519171
6.96779e-07
0.00519166
6.08338e-07
0.00519161
5.30468e-07
0.00519157
4.63442e-07
0.00519153
4.03497e-07
0.0051915
3.51909e-07
0.00519147
3.06055e-07
0.00519144
2.66737e-07
0.00519142
2.31364e-07
0.00519139
2.0133e-07
0.00519138
1.74151e-07
0.00519136
1.5139e-07
0.00519134
1.30184e-07
0.00519133
1.12541e-07
0.00519132
9.62837e-08
0.00519131
8.31533e-08
0.0051913
7.06726e-08
0.00519129
6.10882e-08
0.00519129
5.18727e-08
0.00519128
4.51112e-08
0.00519128
3.80962e-08
0.00519127
3.31721e-08
0.00519127
2.77836e-08
0.00519126
2.4269e-08
0.00519126
2.02558e-08
0.00519126
1.79389e-08
0.00519126
1.50194e-08
0.00519125
1.35571e-08
0.00519125
1.10476e-08
0.00519125
1.05799e-08
0.00519125
9.30931e-09
0.00519125
8.93841e-09
0.00519125
7.50328e-09
0.00519124
7.26113e-09
0.00519124
5.61559e-09
0.00519124
4.99886e-09
0.00519124
3.05821e-09
0.00519124
2.47721e-09
0.00519124
8.35052e-10
0.00519124
5.57859e-10
0.00519124
-4.58449e-10
0.00519124
-1.86604e-10
0.00519124
-6.43859e-10
0.00519124
-1.30689e-10
0.00519124
-6.45773e-10
0.00519124
3.76086e-11
0.00519124
-3.32724e-10
0.00519124
1.64522e-10
0.00519124
-6.07457e-11
0.00519124
8.4167e-10
0.00519124
8.54103e-10
0.00519124
1.70188e-09
0.00519124
1.99988e-09
0.00519124
3.20399e-09
0.00519124
3.55257e-09
0.00519124
5.00903e-09
0.00519124
6.07118e-09
0.00519124
8.45549e-09
0.00519124
1.10753e-08
0.00519123
1.54205e-08
0.00519123
2.11332e-08
0.00519123
2.9848e-08
0.00519123
4.1461e-08
0.00519122
5.83268e-08
0.00519121
8.17792e-08
0.00519121
1.14597e-07
0.00519119
1.60501e-07
0.00519117
2.21786e-07
0.00519114
3.1215e-07
0.00519108
4.25454e-07
0.00519097
6.55289e-07
0.00519077
1.05864e-06
0.00519026
3.13056e-06
0.00518912
9.37934e-06
0.00518513
3.42131e-05
6.96143e-05
0.00518536
0.00147105
0.00520053
0.000630792
0.00519584
0.000150381
0.00519663
8.39213e-06
0.00519665
-9.78434e-06
0.00519681
5.4149e-06
0.00519649
8.82039e-06
0.00519616
1.08908e-05
0.00519582
9.31901e-06
0.00519553
8.1057e-06
0.00519528
6.63626e-06
0.00519507
5.53184e-06
0.00519489
4.56423e-06
0.00519474
3.80587e-06
0.00519462
3.18463e-06
0.00519451
2.69121e-06
0.00519441
2.28748e-06
0.00519433
1.95946e-06
0.00519426
1.68872e-06
0.00519419
1.46216e-06
0.00519414
1.26909e-06
0.00519408
1.10535e-06
0.00519404
9.63678e-07
0.00519399
8.41793e-07
0.00519396
7.35628e-07
0.00519392
6.43556e-07
0.00519389
5.62172e-07
0.00519386
4.922e-07
0.00519383
4.29608e-07
0.00519381
3.75475e-07
0.00519379
3.2735e-07
0.00519377
2.86163e-07
0.00519375
2.48812e-07
0.00519374
2.17011e-07
0.00519372
1.88236e-07
0.00519371
1.64048e-07
0.0051937
1.41391e-07
0.00519369
1.22491e-07
0.00519368
1.04986e-07
0.00519367
9.07581e-08
0.00519366
7.72737e-08
0.00519366
6.69443e-08
0.00519365
5.69381e-08
0.00519365
4.95586e-08
0.00519364
4.19416e-08
0.00519364
3.65746e-08
0.00519364
3.07119e-08
0.00519364
2.68878e-08
0.00519363
2.25828e-08
0.00519363
1.99792e-08
0.00519363
1.67894e-08
0.00519363
1.52965e-08
0.00519363
1.2574e-08
0.00519362
1.20109e-08
0.00519362
1.06811e-08
0.00519362
1.03516e-08
0.00519362
8.77225e-09
0.00519362
8.43766e-09
0.00519362
6.62396e-09
0.00519362
5.82292e-09
0.00519362
3.62423e-09
0.00519362
2.84817e-09
0.00519362
9.31823e-10
0.00519362
5.36395e-10
0.00519362
-6.40271e-10
0.00519362
-3.773e-10
0.00519362
-9.00493e-10
0.00519362
-3.1652e-10
0.00519362
-8.3817e-10
0.00519362
-1.26823e-10
0.00519362
-4.73432e-10
0.00519362
1.37399e-10
0.00519362
-9.06993e-11
0.00519362
9.48373e-10
0.00519362
1.03179e-09
0.00519362
2.00354e-09
0.00519362
2.32515e-09
0.00519362
3.60621e-09
0.00519361
3.98167e-09
0.00519361
5.49238e-09
0.00519361
6.58092e-09
0.00519361
9.09689e-09
0.00519361
1.1869e-08
0.00519361
1.65e-08
0.00519361
2.24932e-08
0.00519361
3.16294e-08
0.00519361
4.38072e-08
0.0051936
6.15891e-08
0.0051936
8.62356e-08
0.00519359
1.20868e-07
0.00519358
1.69787e-07
0.00519357
2.36167e-07
0.00519354
3.37252e-07
0.0051935
4.70464e-07
0.0051934
7.50618e-07
0.00519323
1.23528e-06
0.00519279
3.56399e-06
0.00519194
1.02335e-05
0.00518908
3.70729e-05
7.50825e-05
0.00516893
0.00130212
0.00519488
0.000604848
0.00519434
0.000150919
0.00519522
7.50871e-06
0.00519512
-9.67854e-06
0.00519542
5.10779e-06
0.00519535
8.88884e-06
0.00519532
1.09284e-05
0.00519523
9.40595e-06
0.00519516
8.17963e-06
0.00519508
6.70957e-06
0.00519502
5.59493e-06
0.00519496
4.61962e-06
0.00519492
3.853e-06
0.00519488
3.22593e-06
0.00519484
2.72795e-06
0.00519481
2.32062e-06
0.00519478
1.98988e-06
0.00519475
1.71689e-06
0.00519472
1.48822e-06
0.0051947
1.29339e-06
0.00519467
1.12832e-06
0.00519465
9.85144e-07
0.00519463
8.6202e-07
0.00519461
7.54803e-07
0.00519459
6.61584e-07
0.00519458
5.7881e-07
0.00519456
5.07702e-07
0.00519455
4.44136e-07
0.00519453
3.88921e-07
0.00519452
3.39752e-07
0.00519451
2.97821e-07
0.0051945
2.59521e-07
0.00519449
2.268e-07
0.00519448
1.9718e-07
0.00519447
1.72242e-07
0.00519446
1.48726e-07
0.00519446
1.29085e-07
0.00519445
1.10789e-07
0.00519445
9.58394e-08
0.00519444
8.16893e-08
0.00519444
7.09037e-08
0.00519443
6.03776e-08
0.00519443
5.2581e-08
0.00519443
4.45628e-08
0.00519443
3.89228e-08
0.00519442
3.27416e-08
0.00519442
2.87313e-08
0.00519442
2.42282e-08
0.00519442
2.14665e-08
0.00519442
1.80755e-08
0.00519442
1.66271e-08
0.00519442
1.37931e-08
0.00519441
1.31696e-08
0.00519441
1.17964e-08
0.00519441
1.15496e-08
0.00519441
9.87585e-09
0.00519441
9.45772e-09
0.00519441
7.51828e-09
0.00519441
6.55303e-09
0.00519441
4.12289e-09
0.00519441
3.16435e-09
0.00519441
9.88064e-10
0.00519441
4.73523e-10
0.00519441
-8.73252e-10
0.00519441
-6.15058e-10
0.00519441
-1.21639e-09
0.00519441
-5.68765e-10
0.00519441
-1.07567e-09
0.00519441
-3.32877e-10
0.00519441
-6.5937e-10
0.00519441
9.172e-11
0.00519441
-1.21483e-10
0.00519441
1.0464e-09
0.00519441
1.20596e-09
0.00519441
2.30263e-09
0.00519441
2.62853e-09
0.00519441
3.95006e-09
0.00519441
4.32502e-09
0.00519441
5.85715e-09
0.00519441
6.92886e-09
0.00519441
9.5116e-09
0.0051944
1.23613e-08
0.0051944
1.71751e-08
0.0051944
2.32372e-08
0.0051944
3.26194e-08
0.0051944
4.50375e-08
0.0051944
6.32393e-08
0.0051944
8.84226e-08
0.00519439
1.2397e-07
0.00519439
1.74654e-07
0.00519438
2.44504e-07
0.00519436
3.53881e-07
0.00519433
5.03761e-07
0.00519425
8.26546e-07
0.00519411
1.37761e-06
0.00519379
3.89134e-06
0.00519323
1.07901e-05
0.00519153
3.87738e-05
7.80772e-05
0.00515491
0.00114721
0.00518949
0.000570272
0.00519259
0.000147819
0.0051935
6.59954e-06
0.00519327
-9.44644e-06
0.00519368
4.69796e-06
0.00519384
8.7319e-06
0.00519406
1.07069e-05
0.0051942
9.2634e-06
0.00519432
8.05533e-06
0.00519441
6.61906e-06
0.00519449
5.5218e-06
0.00519454
4.56247e-06
0.00519459
3.80644e-06
0.00519463
3.18872e-06
0.00519466
2.69828e-06
0.00519468
2.2972e-06
0.0051947
1.97169e-06
0.00519471
1.70303e-06
0.00519472
1.4777e-06
0.00519473
1.2857e-06
0.00519474
1.12326e-06
0.00519474
9.82068e-07
0.00519474
8.60654e-07
0.00519474
7.54939e-07
0.00519474
6.62875e-07
0.00519474
5.80716e-07
0.00519473
5.10157e-07
0.00519473
4.47173e-07
0.00519473
3.92288e-07
0.00519472
3.43253e-07
0.00519472
3.01627e-07
0.00519472
2.63377e-07
0.00519471
2.30567e-07
0.00519471
2.00832e-07
0.00519471
1.75808e-07
0.0051947
1.52024e-07
0.0051947
1.32157e-07
0.0051947
1.13537e-07
0.00519469
9.82541e-08
0.00519469
8.37797e-08
0.00519469
7.28261e-08
0.00519469
6.2057e-08
0.00519469
5.40669e-08
0.00519468
4.58581e-08
0.00519468
4.01183e-08
0.00519468
3.37873e-08
0.00519468
2.97155e-08
0.00519468
2.51486e-08
0.00519468
2.23374e-08
0.00519468
1.8823e-08
0.00519468
1.7488e-08
0.00519468
1.46383e-08
0.00519468
1.40114e-08
0.00519468
1.26064e-08
0.00519467
1.24821e-08
0.00519467
1.07611e-08
0.00519467
1.02906e-08
0.00519467
8.25673e-09
0.00519467
7.1643e-09
0.00519467
4.52872e-09
0.00519467
3.41004e-09
0.00519467
1.0007e-09
0.00519467
3.67873e-10
0.00519467
-1.15741e-09
0.00519467
-9.02328e-10
0.00519467
-1.58776e-09
0.00519467
-8.90846e-10
0.00519467
-1.36395e-09
0.00519467
-5.7663e-10
0.00519467
-8.86509e-10
0.00519467
2.18434e-11
0.00519467
-1.4832e-10
0.00519467
1.13549e-09
0.00519467
1.37314e-09
0.00519467
2.59113e-09
0.00519467
2.90658e-09
0.00519467
4.22817e-09
0.00519467
4.5745e-09
0.00519467
6.08744e-09
0.00519467
7.10932e-09
0.00519467
9.70401e-09
0.00519467
1.25553e-08
0.00519467
1.74488e-08
0.00519467
2.34514e-08
0.00519467
3.28374e-08
0.00519467
4.51914e-08
0.00519467
6.33434e-08
0.00519467
8.84283e-08
0.00519467
1.24012e-07
0.00519467
1.75201e-07
0.00519467
2.46772e-07
0.00519466
3.61551e-07
0.00519464
5.23745e-07
0.00519459
8.78683e-07
0.00519449
1.47743e-06
0.00519428
4.09793e-06
0.00519403
1.10404e-05
0.00519347
3.93339e-05
7.8739e-05
0.0051431
0.0010041
0.00518465
0.00052873
0.00519094
0.00014153
0.00519182
5.71241e-06
0.00519146
-9.07967e-06
0.00519193
4.22205e-06
0.00519229
8.37554e-06
0.00519274
1.02551e-05
0.00519309
8.91391e-06
0.00519339
7.75192e-06
0.00519363
6.37967e-06
0.00519383
5.32457e-06
0.00519399
4.40247e-06
0.00519412
3.67404e-06
0.00519423
3.07944e-06
0.00519432
2.60748e-06
0.0051944
2.22156e-06
0.00519446
1.90849e-06
0.00519451
1.65007e-06
0.00519456
1.43306e-06
0.0051946
1.24804e-06
0.00519463
1.09183e-06
0.00519465
9.55802e-07
0.00519468
8.388e-07
0.00519469
7.36917e-07
0.00519471
6.48113e-07
0.00519472
5.6844e-07
0.00519473
5.00003e-07
0.00519474
4.39033e-07
0.00519475
3.85809e-07
0.00519475
3.38035e-07
0.00519475
2.97685e-07
0.00519476
2.60428e-07
0.00519476
2.28334e-07
0.00519476
1.99186e-07
0.00519476
1.74709e-07
0.00519476
1.5124e-07
0.00519476
1.31649e-07
0.00519476
1.13171e-07
0.00519476
9.79488e-08
0.00519476
8.34863e-08
0.00519476
7.26492e-08
0.00519476
6.19092e-08
0.00519476
5.39609e-08
0.00519476
4.57695e-08
0.00519476
4.01097e-08
0.00519476
3.37965e-08
0.00519476
2.97982e-08
0.00519476
2.5302e-08
0.00519476
2.2555e-08
0.00519476
1.90054e-08
0.00519476
1.78351e-08
0.00519476
1.50679e-08
0.00519476
1.44967e-08
0.00519476
1.30832e-08
0.00519476
1.31025e-08
0.00519476
1.13938e-08
0.00519476
1.08998e-08
0.00519476
8.81256e-09
0.00519476
7.63532e-09
0.00519476
4.83667e-09
0.00519476
3.57546e-09
0.00519476
9.67136e-10
0.00519476
2.13756e-10
0.00519476
-1.48418e-09
0.00519476
-1.245e-09
0.00519476
-2.00306e-09
0.00519476
-1.2869e-09
0.00519476
-1.69962e-09
0.00519476
-8.61832e-10
0.00519476
-1.14239e-09
0.00519476
-7.8238e-11
0.00519476
-1.71803e-10
0.00519476
1.21949e-09
0.00519476
1.52924e-09
0.00519476
2.8613e-09
0.00519476
3.15634e-09
0.00519476
4.43617e-09
0.00519476
4.7262e-09
0.00519476
6.18755e-09
0.00519476
7.1295e-09
0.00519476
9.67333e-09
0.00519476
1.24597e-08
0.00519476
1.73333e-08
0.00519476
2.31585e-08
0.00519476
3.23211e-08
0.00519476
4.43158e-08
0.00519476
6.19819e-08
0.00519476
8.63691e-08
0.00519477
1.21133e-07
0.00519477
1.71577e-07
0.00519477
2.4303e-07
0.00519477
3.59975e-07
0.00519477
5.29294e-07
0.00519474
9.03896e-07
0.00519469
1.52913e-06
0.00519461
4.17536e-06
0.00519467
1.09843e-05
0.0051952
3.88007e-05
7.72365e-05
0.00513321
0.000870891
0.00518039
0.000481551
0.00518947
0.000132456
0.0051903
4.87413e-06
0.00518979
-8.57006e-06
0.00519031
3.71058e-06
0.00519084
7.8453e-06
0.00519149
9.60082e-06
0.00519202
8.37979e-06
0.00519249
7.28834e-06
0.00519286
6.00648e-06
0.00519317
5.01548e-06
0.00519342
4.14949e-06
0.00519363
3.46388e-06
0.00519381
2.90469e-06
0.00519395
2.46104e-06
0.00519408
2.09825e-06
0.00519418
1.80406e-06
0.00519427
1.5612e-06
0.00519435
1.35695e-06
0.00519441
1.18269e-06
0.00519447
1.03589e-06
0.00519452
9.07918e-07
0.00519456
7.97786e-07
0.00519459
7.01844e-07
0.00519462
6.182e-07
0.00519465
5.42739e-07
0.00519467
4.77883e-07
0.00519469
4.20228e-07
0.0051947
3.69898e-07
0.00519472
3.2445e-07
0.00519473
2.86267e-07
0.00519474
2.50876e-07
0.00519475
2.20263e-07
0.00519475
1.92369e-07
0.00519476
1.69036e-07
0.00519476
1.4644e-07
0.00519477
1.27607e-07
0.00519477
1.09719e-07
0.00519477
9.49502e-08
0.00519478
8.08266e-08
0.00519478
7.03801e-08
0.00519478
5.99323e-08
0.00519478
5.22596e-08
0.00519478
4.42915e-08
0.00519479
3.88902e-08
0.00519479
3.27575e-08
0.00519479
2.89664e-08
0.00519479
2.46698e-08
0.00519479
2.21044e-08
0.00519479
1.86146e-08
0.00519479
1.76511e-08
0.00519479
1.50543e-08
0.00519479
1.46007e-08
0.00519479
1.32099e-08
0.00519479
1.33861e-08
0.00519479
1.17448e-08
0.00519479
1.12672e-08
0.00519479
9.16361e-09
0.00519479
7.94914e-09
0.00519479
5.03983e-09
0.00519479
3.65093e-09
0.00519479
8.8781e-10
0.00519479
1.59438e-11
0.00519479
-1.84936e-09
0.00519479
-1.63916e-09
0.00519479
-2.45917e-09
0.00519479
-1.74636e-09
0.00519479
-2.08787e-09
0.00519479
-1.18021e-09
0.00519479
-1.41931e-09
0.00519479
-2.08658e-10
0.00519479
-1.91019e-10
0.00519479
1.29966e-09
0.00519479
1.67338e-09
0.00519479
3.10184e-09
0.00519479
3.37538e-09
0.00519479
4.57184e-09
0.00519479
4.78006e-09
0.00519479
6.1569e-09
0.00519479
6.99346e-09
0.00519479
9.42883e-09
0.00519479
1.20857e-08
0.00519479
1.68437e-08
0.00519479
2.2379e-08
0.00519479
3.11136e-08
0.00519479
4.24769e-08
0.0051948
5.92489e-08
0.0051948
8.23814e-08
0.0051948
1.15506e-07
0.00519481
1.6398e-07
0.00519482
2.33436e-07
0.00519483
3.49092e-07
0.00519484
5.198e-07
0.00519485
9.00335e-07
0.00519485
1.5296e-06
0.0051949
4.12085e-06
0.00519525
1.06298e-05
0.00519681
3.72425e-05
7.37558e-05
0.00512497
0.000745921
0.00517671
0.000429811
0.0051882
0.000120968
0.00518898
4.09664e-06
0.00518832
-7.91322e-06
0.00518884
3.18765e-06
0.00518952
7.16577e-06
0.00519035
8.77028e-06
0.00519105
7.68297e-06
0.00519165
6.6833e-06
0.00519215
5.51454e-06
0.00519255
4.60687e-06
0.00519289
3.81356e-06
0.00519317
3.18416e-06
0.0051934
2.67128e-06
0.0051936
2.26462e-06
0.00519377
1.932e-06
0.00519391
1.66239e-06
0.00519403
1.43978e-06
0.00519413
1.25227e-06
0.00519422
1.0921e-06
0.0051943
9.57549e-07
0.00519437
8.40203e-07
0.00519443
7.39153e-07
0.00519448
6.51041e-07
0.00519452
5.74249e-07
0.00519456
5.04561e-07
0.00519459
4.44625e-07
0.00519462
3.91459e-07
0.00519465
3.4514e-07
0.00519467
3.0301e-07
0.00519469
2.67805e-07
0.0051947
2.35068e-07
0.00519472
2.06647e-07
0.00519473
1.80631e-07
0.00519474
1.58993e-07
0.00519475
1.37796e-07
0.00519475
1.20172e-07
0.00519476
1.03298e-07
0.00519477
8.93585e-08
0.00519477
7.5888e-08
0.00519478
6.60895e-08
0.00519478
5.61843e-08
0.00519478
4.90091e-08
0.00519478
4.14648e-08
0.00519479
3.64934e-08
0.00519479
3.06971e-08
0.00519479
2.72366e-08
0.00519479
2.3262e-08
0.00519479
2.09915e-08
0.00519479
1.76621e-08
0.00519479
1.69406e-08
0.0051948
1.45885e-08
0.0051948
1.43122e-08
0.0051948
1.29835e-08
0.0051948
1.33242e-08
0.0051948
1.17981e-08
0.0051948
1.13829e-08
0.0051948
9.29736e-09
0.0051948
8.09247e-09
0.00519479
5.13238e-09
0.00519479
3.63394e-09
0.00519479
7.62785e-10
0.0051948
-2.22688e-10
0.0051948
-2.24256e-09
0.0051948
-2.08122e-09
0.0051948
-2.94801e-09
0.0051948
-2.25869e-09
0.0051948
-2.52435e-09
0.0051948
-1.52898e-09
0.0051948
-1.70783e-09
0.0051948
-3.65569e-10
0.0051948
-2.08295e-10
0.0051948
1.37792e-09
0.0051948
1.80478e-09
0.0051948
3.30368e-09
0.0051948
3.55925e-09
0.0051948
4.63614e-09
0.0051948
4.73701e-09
0.0051948
5.99688e-09
0.0051948
6.70638e-09
0.0051948
8.98485e-09
0.0051948
1.14491e-08
0.0051948
1.59998e-08
0.0051948
2.11431e-08
0.0051948
2.9265e-08
0.00519481
3.97505e-08
0.00519481
5.52524e-08
0.00519481
7.66192e-08
0.00519482
1.07334e-07
0.00519483