/*--------------------------------*- C++ -*----------------------------------*\
  =========                 |
  \\      /  F ield         | OpenFOAM: The Open Source CFD Toolbox
   \\    /   O peration     | Website:  https://openfoam.org
    \\  /    A nd           | Version:  7
     \\/     M anipulation  |
\*---------------------------------------------------------------------------*/
FoamFile
{
    version     2.0;
    format      ascii;
    class       volScalarField;
    location    "3";
    object      p;
}
// * * * * * * * * * * * * * * * * * * * * * * * * * * * * * * * * * * * * * //

dimensions      [0 2 -2 0 0 0 0];

internalField   nonuniform List<scalar> 
4000
(
427.129
413.893
409.837
404.562
399.876
395.087
390.482
385.935
381.476
377.071
372.717
368.4
364.114
359.853
355.613
351.388
347.177
342.976
338.784
334.599
330.42
326.245
322.073
317.905
313.739
309.575
305.412
301.251
297.091
292.931
288.772
284.614
280.456
276.298
272.141
267.984
263.828
259.671
255.514
251.358
247.202
243.046
238.889
234.733
230.577
226.421
222.265
218.109
213.953
209.797
205.642
201.486
197.33
193.174
189.018
184.862
180.707
176.551
172.395
168.239
164.083
159.928
155.772
151.616
147.46
143.305
139.149
134.993
130.837
126.682
122.526
118.37
114.214
110.059
105.903
101.747
97.5915
93.4357
89.28
85.1243
80.9686
76.8129
72.6573
68.5017
64.3461
60.1906
56.0352
51.8801
47.7251
43.5706
39.4166
35.2635
31.1117
26.9616
22.8142
18.6701
14.5303
10.3924
6.27091
2.14854
424.683
413.803
409.687
404.374
399.687
394.895
390.291
385.742
381.283
376.878
372.523
368.206
363.92
359.659
355.418
351.193
346.982
342.781
338.589
334.404
330.225
326.05
321.878
317.71
313.544
309.38
305.217
301.056
296.895
292.736
288.577
284.419
280.261
276.103
271.946
267.789
263.632
259.476
255.319
251.163
247.006
242.85
238.694
234.538
230.382
226.226
222.07
217.914
213.758
209.602
205.446
201.29
197.135
192.979
188.823
184.667
180.511
176.356
172.2
168.044
163.888
159.732
155.577
151.421
147.265
143.109
138.954
134.798
130.642
126.486
122.331
118.175
114.019
109.863
105.708
101.552
97.3962
93.2404
89.0847
84.929
80.7733
76.6176
72.462
68.3064
64.1508
59.9953
55.84
51.6848
47.5298
43.3753
39.2213
35.0682
30.9164
26.7663
22.6189
18.4747
14.3351
10.1977
6.07754
1.96692
423.4
413.799
409.64
404.295
399.608
394.812
390.208
385.658
381.199
376.793
372.438
368.12
363.834
359.573
355.332
351.107
346.896
342.695
338.503
334.318
330.138
325.963
321.791
317.623
313.457
309.293
305.13
300.969
296.808
292.649
288.49
284.332
280.174
276.016
271.859
267.702
263.545
259.389
255.232
251.076
246.92
242.763
238.607
234.451
230.295
226.139
221.983
217.827
213.671
209.515
205.359
201.204
197.048
192.892
188.736
184.58
180.424
176.269
172.113
167.957
163.801
159.645
155.49
151.334
147.178
143.022
138.867
134.711
130.555
126.399
122.244
118.088
113.932
109.776
105.621
101.465
97.3092
93.1535
88.9978
84.8421
80.6864
76.5307
72.375
68.2194
64.0639
59.9084
55.753
51.5978
47.4429
43.2884
39.1344
34.9813
30.8294
26.6793
22.5319
18.3877
14.2483
10.1109
5.99141
1.88579
422.882
413.891
409.676
404.312
399.625
394.825
390.22
385.67
381.21
376.804
372.448
368.13
363.843
359.582
355.341
351.116
346.904
342.704
338.511
334.326
330.147
325.971
321.8
317.631
313.465
309.301
305.139
300.977
296.817
292.657
288.498
284.34
280.182
276.025
271.867
267.711
263.554
259.397
255.241
251.084
246.928
242.772
238.616
234.459
230.303
226.147
221.991
217.836
213.68
209.524
205.368
201.212
197.056
192.9
188.744
184.589
180.433
176.277
172.121
167.965
163.81
159.654
155.498
151.342
147.187
143.031
138.875
134.719
130.564
126.408
122.252
118.096
113.941
109.785
105.629
101.473
97.3176
93.1619
89.0062
84.8505
80.6948
76.5391
72.3834
68.2278
64.0723
59.9168
55.7614
51.6062
47.4513
43.2968
39.1428
34.9896
30.8377
26.6877
22.5402
18.3961
14.2567
10.1197
5.99902
1.8906
422.543
414.002
409.741
404.359
399.669
394.864
390.26
385.708
381.248
376.841
372.486
368.167
363.881
359.619
355.378
351.153
346.941
342.74
338.548
334.363
330.183
326.008
321.836
317.668
313.502
309.338
305.175
301.014
296.853
292.694
288.535
284.377
280.219
276.061
271.904
267.747
263.59
259.434
255.277
251.121
246.964
242.808
238.652
234.496
230.34
226.184
222.028
217.872
213.716
209.56
205.404
201.248
197.092
192.937
188.781
184.625
180.469
176.313
172.158
168.002
163.846
159.69
155.535
151.379
147.223
143.067
138.911
134.756
130.6
126.444
122.288
118.133
113.977
109.821
105.666
101.51
97.354
93.1983
89.0426
84.8869
80.7312
76.5755
72.4198
68.2642
64.1087
59.9532
55.7978
51.6426
47.4877
43.3331
39.1792
35.026
30.8741
26.724
22.5766
18.4325
14.2932
10.156
6.03438
1.92163
422.238
414.097
409.807
404.408
399.714
394.905
390.301
385.749
381.289
376.881
372.525
368.207
363.92
359.658
355.417
351.192
346.98
342.779
338.587
334.401
330.222
326.046
321.875
317.706
313.54
309.376
305.213
301.052
296.892
292.732
288.573
284.415
280.257
276.099
271.942
267.785
263.629
259.472
255.315
251.159
247.003
242.847
238.69
234.534
230.378
226.222
222.066
217.91
213.754
209.598
205.443
201.287
197.131
192.975
188.819
184.663
180.508
176.352
172.196
168.04
163.884
159.729
155.573
151.417
147.261
143.106
138.95
134.794
130.638
126.483
122.327
118.171
114.015
109.86
105.704
101.548
97.3924
93.2367
89.081
84.9252
80.7695
76.6139
72.4582
68.3026
64.147
59.9915
55.8362
51.681
47.5261
43.3715
39.2175
35.0643
30.9124
26.7623
22.6148
18.4707
14.3315
10.1947
6.07209
1.95489
421.966
414.175
409.871
404.456
399.756
394.943
390.34
385.787
381.327
376.919
372.563
368.244
363.957
359.695
355.454
351.229
347.017
342.816
338.624
334.438
330.258
326.083
321.912
317.743
313.577
309.413
305.25
301.089
296.928
292.769
288.61
284.452
280.294
276.136
271.979
267.822
263.665
259.509
255.352
251.196
247.039
242.883
238.727
234.571
230.415
226.259
222.103
217.947
213.791
209.635
205.479
201.323
197.168
193.012
188.856
184.7
180.544
176.388
172.233
168.077
163.921
159.765
155.61
151.454
147.298
143.142
138.986
134.831
130.675
126.519
122.363
118.208
114.052
109.896
105.741
101.585
97.4291
93.2733
89.1176
84.9619
80.8062
76.6505
72.4949
68.3392
64.1837
60.0282
55.8728
51.7176
47.5627
43.4081
39.2541
35.101
30.949
26.7989
22.6514
18.5074
14.3682
10.232
6.10793
1.9863
421.73
414.238
409.93
404.502
399.796
394.98
390.376
385.823
381.363
376.955
372.599
368.28
363.992
359.73
355.489
351.264
347.052
342.851
338.658
334.473
330.293
326.118
321.946
317.778
313.612
309.447
305.285
301.123
296.963
292.803
288.645
284.486
280.328
276.171
272.014
267.857
263.7
259.543
255.387
251.23
247.074
242.918
238.762
234.606
230.45
226.294
222.138
217.982
213.826
209.67
205.514
201.358
197.202
193.046
188.891
184.735
180.579
176.423
172.267
168.112
163.956
159.8
155.644
151.488
147.333
143.177
139.021
134.865
130.71
126.554
122.398
118.242
114.087
109.931
105.775
101.619
97.4637
93.308
89.1523
84.9966
80.8409
76.6852
72.5295
68.3739
64.2184
60.0629
55.9075
51.7523
47.5974
43.4428
39.2888
35.1356
30.9837
26.8336
22.686
18.5421
14.403
10.2673
6.1417
2.01571
421.525
414.29
409.985
404.545
399.833
395.013
390.41
385.856
381.396
376.988
372.632
368.312
364.025
359.763
355.521
351.296
347.084
342.883
338.691
334.505
330.326
326.15
321.979
317.81
313.644
309.48
305.317
301.156
296.995
292.836
288.677
284.519
280.361
276.203
272.046
267.889
263.732
259.576
255.419
251.263
247.106
242.95
238.794
234.638
230.482
226.326
222.17
218.014
213.858
209.702
205.546
201.39
197.235
193.079
188.923
184.767
180.611
176.455
172.3
168.144
163.988
159.832
155.677
151.521
147.365
143.209
139.053
134.898
130.742
126.586
122.43
118.275
114.119
109.963
105.807
101.652
97.496
93.3403
89.1846
85.0289
80.8732
76.7175
72.5618
68.4062
64.2506
60.0952
55.9398
51.7846
47.6297
43.4751
39.3211
35.1679
31.0159
26.8658
22.7183
18.5744
14.4353
10.3004
6.17316
2.04295
421.345
414.331
410.035
404.585
399.866
395.043
390.441
385.887
381.427
377.018
372.662
368.343
364.055
359.793
355.551
351.326
347.114
342.913
338.721
334.535
330.355
326.18
322.008
317.84
313.674
309.509
305.347
301.185
297.025
292.865
288.707
284.548
280.39
276.233
272.076
267.919
263.762
259.605
255.449
251.292
247.136
242.98
238.824
234.668
230.512
226.356
222.2
218.044
213.888
209.732
205.576
201.42
197.264
193.108
188.953
184.797
180.641
176.485
172.329
168.174
164.018
159.862
155.706
151.55
147.395
143.239
139.083
134.927
130.772
126.616
122.46
118.304
114.149
109.993
105.837
101.681
97.5257
93.37
89.2142
85.0585
80.9028
76.7471
72.5915
68.4359
64.2803
60.1248
55.9695
51.8143
47.6593
43.5047
39.3507
35.1975
31.0456
26.8954
22.7479
18.6041
14.4651
10.3309
6.20209
2.06789
421.188
414.364
410.08
404.622
399.897
395.071
390.469
385.914
381.454
377.046
372.689
368.37
364.083
359.82
355.579
351.353
347.141
342.94
338.748
334.562
330.382
326.207
322.035
317.867
313.701
309.536
305.374
301.212
297.052
292.892
288.734
284.575
280.417
276.26
272.103
267.946
263.789
259.632
255.476
251.319
247.163
243.007
238.851
234.695
230.539
226.383
222.227
218.071
213.915
209.759
205.603
201.447
197.291
193.135
188.98
184.824
180.668
176.512
172.356
168.2
164.045
159.889
155.733
151.577
147.422
143.266
139.11
134.954
130.799
126.643
122.487
118.331
114.176
110.02
105.864
101.708
97.5527
93.3969
89.2412
85.0855
80.9298
76.7741
72.6185
68.4628
64.3073
60.1518
55.9964
51.8412
47.6863
43.5317
39.3777
35.2245
31.0725
26.9224
22.7748
18.6311
14.4921
10.3587
6.22844
2.09048
421.052
414.391
410.12
404.656
399.924
395.096
390.494
385.939
381.479
377.071
372.714
368.395
364.107
359.845
355.603
351.378
347.166
342.965
338.772
334.587
330.407
326.231
322.06
317.891
313.725
309.561
305.398
301.237
297.076
292.917
288.758
284.599
280.442
276.284
272.127
267.97
263.813
259.656
255.5
251.344
247.187
243.031
238.875
234.719
230.563
226.407
222.251
218.095
213.939
209.783
205.627
201.471
197.315
193.16
189.004
184.848
180.692
176.536
172.381
168.225
164.069
159.913
155.757
151.602
147.446
143.29
139.134
134.979
130.823
126.667
122.511
118.356
114.2
110.044
105.888
101.733
97.5769
93.4212
89.2655
85.1098
80.9541
76.7984
72.6427
68.4871
64.3316
60.1761
56.0207
51.8655
47.7106
43.556
39.402
35.2488
31.0968
26.9467
22.7991
18.6554
14.5165
10.3839
6.25217
2.11076
420.935
414.412
410.155
404.686
399.948
395.118
390.516
385.961
381.501
377.093
372.736
368.417
364.129
359.867
355.625
351.4
347.188
342.986
338.794
334.608
330.428
326.253
322.081
317.913
313.747
309.582
305.42
301.258
297.098
292.938
288.779
284.621
280.463
276.306
272.148
267.991
263.835
259.678
255.522
251.365
247.209
243.053
238.897
234.74
230.584
226.428
222.272
218.116
213.961
209.805
205.649
201.493
197.337
193.181
189.025
184.87
180.714
176.558
172.402
168.246
164.091
159.935
155.779
151.623
147.467
143.312
139.156
135
130.844
126.689
122.533
118.377
114.221
110.066
105.91
101.754
97.5985
93.4428
89.2871
85.1314
80.9757
76.82
72.6643
68.5087
64.3531
60.1977
56.0423
51.8871
47.7321
43.5776
39.4235
35.2704
31.1184
26.9682
22.8206
18.677
14.5381
10.4063
6.27329
2.12874
420.836
414.428
410.186
404.713
399.969
395.137
390.535
385.98
381.521
377.112
372.755
368.436
364.148
359.886
355.644
351.419
347.206
343.005
338.813
334.627
330.447
326.272
322.1
317.932
313.765
309.601
305.438
301.277
297.117
292.957
288.798
284.64
280.482
276.325
272.167
268.01
263.854
259.697
255.54
251.384
247.228
243.072
238.915
234.759
230.603
226.447
222.291
218.135
213.979
209.824
205.668
201.512
197.356
193.2
189.044
184.888
180.733
176.577
172.421
168.265
164.109
159.954
155.798
151.642
147.486
143.331
139.175
135.019
130.863
126.708
122.552
118.396
114.24
110.085
105.929
101.773
97.6174
93.4617
89.306
85.1503
80.9946
76.8389
72.6832
68.5276
64.372
60.2165
56.0612
51.906
47.751
43.5965
39.4424
35.2892
31.1372
26.9871
22.8395
18.696
14.5571
10.426
6.29178
2.14444
420.753
414.441
410.212
404.736
399.987
395.153
390.551
385.996
381.537
377.128
372.772
368.452
364.165
359.902
355.66
351.435
347.223
343.021
338.829
334.643
330.463
326.288
322.116
317.948
313.782
309.617
305.455
301.293
297.133
292.973
288.814
284.656
280.498
276.341
272.184
268.027
263.87
259.713
255.557
251.4
247.244
243.088
238.932
234.776
230.62
226.463
222.308
218.152
213.996
209.84
205.684
201.528
197.372
193.216
189.06
184.905
180.749
176.593
172.437
168.281
164.126
159.97
155.814
151.658
147.503
143.347
139.191
135.035
130.88
126.724
122.568
118.412
114.257
110.101
105.945
101.789
97.6336
93.4779
89.3222
85.1664
81.0107
76.8551
72.6994
68.5438
64.3882
60.2327
56.0774
51.9222
47.7672
43.6126
39.4586
35.3054
31.1534
27.0033
22.8556
18.7122
14.5733
10.4429
6.30765
2.15787
420.685
414.451
410.234
404.755
400.002
395.166
390.565
386.01
381.551
377.142
372.785
368.466
364.178
359.916
355.674
351.448
347.236
343.035
338.842
334.657
330.477
326.302
322.13
317.961
313.795
309.631
305.468
301.307
297.146
292.987
288.828
284.67
280.512
276.354
272.197
268.04
263.883
259.727
255.57
251.414
247.257
243.101
238.945
234.789
230.633
226.477
222.321
218.165
214.009
209.853
205.697
201.541
197.386
193.23
189.074
184.918
180.762
176.607
172.451
168.295
164.139
159.983
155.828
151.672
147.516
143.36
139.205
135.049
130.893
126.737
122.582
118.426
114.27
110.114
105.959
101.803
97.6471
93.4914
89.3357
85.1799
81.0242
76.8686
72.7129
68.5573
64.4017
60.2462
56.0908
51.9357
47.7807
43.6261
39.4721
35.3189
31.1669
27.0167
22.8691
18.7257
14.5869
10.457
6.32089
2.16906
420.631
414.458
410.251
404.771
400.014
395.177
390.576
386.021
381.562
377.153
372.796
368.477
364.189
359.927
355.685
351.459
347.247
343.046
338.853
334.668
330.488
326.312
322.141
317.972
313.806
309.642
305.479
301.318
297.157
292.998
288.839
284.68
280.523
276.365
272.208
268.051
263.894
259.737
255.581
251.425
247.268
243.112
238.956
234.8
230.644
226.488
222.332
218.176
214.02
209.864
205.708
201.552
197.396
193.241
189.085
184.929
180.773
176.617
172.462
168.306
164.15
159.994
155.838
151.683
147.527
143.371
139.215
135.06
130.904
126.748
122.592
118.437
114.281
110.125
105.969
101.814
97.6579
93.5022
89.3464
85.1907
81.035
76.8793
72.7237
68.5681
64.4125
60.257
56.1016
51.9464
47.7915
43.6369
39.4829
35.3297
31.1777
27.0275
22.8799
18.7365
14.5977
10.4683
6.33148
2.17799
420.592
414.463
410.264
404.783
400.023
395.185
390.584
386.029
381.57
377.161
372.804
368.485
364.197
359.935
355.693
351.467
347.255
343.054
338.861
334.676
330.496
326.321
322.149
317.98
313.814
309.65
305.487
301.326
297.165
293.006
288.847
284.688
280.531
276.373
272.216
268.059
263.902
259.745
255.589
251.433
247.276
243.12
238.964
234.808
230.652
226.496
222.34
218.184
214.028
209.872
205.716
201.56
197.405
193.249
189.093
184.937
180.781
176.625
172.47
168.314
164.158
160.002
155.846
151.691
147.535
143.379
139.223
135.068
130.912
126.756
122.6
118.445
114.289
110.133
105.977
101.822
97.666
93.5102
89.3545
85.1988
81.0431
76.8874
72.7318
68.5762
64.4206
60.2651
56.1097
51.9545
47.7996
43.645
39.491
35.3378
31.1858
27.0356
22.888
18.7447
14.6058
10.4768
6.33943
2.18469
420.566
414.466
410.273
404.79
400.029
395.19
390.589
386.034
381.575
377.167
372.81
368.49
364.203
359.94
355.698
351.473
347.261
343.059
338.867
334.681
330.501
326.326
322.154
317.986
313.819
309.655
305.492
301.331
297.171
293.011
288.852
284.694
280.536
276.378
272.221
268.064
263.908
259.751
255.594
251.438
247.282
243.126
238.969
234.813
230.657
226.501
222.345
218.189
214.033
209.878
205.722
201.566
197.41
193.254
189.098
184.942
180.787
176.631
172.475
168.319
164.163
160.008
155.852
151.696
147.54
143.385
139.229
135.073
130.917
126.762
122.606
118.45
114.294
110.139
105.983
101.827
97.6714
93.5156
89.3599
85.2042
81.0485
76.8928
72.7372
68.5815
64.426
60.2705
56.1151
51.9599
47.805
43.6504
39.4964
35.3432
31.1912
27.041
22.8934
18.7501
14.6112
10.4825
6.34473
2.18915
420.553
414.468
410.277
404.794
400.032
395.193
390.592
386.037
381.578
377.169
372.813
368.493
364.205
359.943
355.701
351.475
347.263
343.062
338.869
334.684
330.504
326.329
322.157
317.988
313.822
309.658
305.495
301.334
297.173
293.014
288.855
284.697
280.539
276.381
272.224
268.067
263.91
259.754
255.597
251.441
247.284
243.128
238.972
234.816
230.66
226.504
222.348
218.192
214.036
209.88
205.724
201.568
197.413
193.257
189.101
184.945
180.789
176.634
172.478
168.322
164.166
160.01
155.855
151.699
147.543
143.387
139.232
135.076
130.92
126.764
122.608
118.453
114.297
110.141
105.986
101.83
97.6741
93.5183
89.3626
85.2069
81.0512
76.8955
72.7399
68.5842
64.4287
60.2732
56.1178
51.9626
47.8077
43.6531
39.4991
35.3459
31.1938
27.0437
22.896
18.7528
14.6139
10.4853
6.34738
2.19139
420.553
414.468
410.277
404.794
400.032
395.193
390.592
386.037
381.578
377.169
372.813
368.493
364.205
359.943
355.701
351.475
347.263
343.062
338.869
334.684
330.504
326.329
322.157
317.988
313.822
309.658
305.495
301.334
297.173
293.014
288.855
284.697
280.539
276.381
272.224
268.067
263.91
259.754
255.597
251.441
247.284
243.128
238.972
234.816
230.66
226.504
222.348
218.192
214.036
209.88
205.724
201.568
197.413
193.257
189.101
184.945
180.789
176.634
172.478
168.322
164.166
160.01
155.855
151.699
147.543
143.387
139.232
135.076
130.92
126.764
122.608
118.453
114.297
110.141
105.986
101.83
97.6741
93.5183
89.3626
85.2069
81.0512
76.8955
72.7399
68.5842
64.4287
60.2732
56.1178
51.9626
47.8077
43.6531
39.4991
35.3459
31.1938
27.0437
22.896
18.7528
14.6139
10.4853
6.34738
2.19139
420.566
414.466
410.273
404.79
400.029
395.19
390.589
386.034
381.575
377.167
372.81
368.49
364.203
359.94
355.698
351.473
347.261
343.059
338.867
334.681
330.501
326.326
322.154
317.986
313.819
309.655
305.492
301.331
297.171
293.011
288.852
284.694
280.536
276.378
272.221
268.064
263.908
259.751
255.594
251.438
247.282
243.126
238.969
234.813
230.657
226.501
222.345
218.189
214.033
209.878
205.722
201.566
197.41
193.254
189.098
184.942
180.787
176.631
172.475
168.319
164.163
160.008
155.852
151.696
147.54
143.385
139.229
135.073
130.917
126.762
122.606
118.45
114.294
110.139
105.983
101.827
97.6714
93.5156
89.3599
85.2042
81.0485
76.8928
72.7372
68.5815
64.426
60.2705
56.1151
51.9599
47.805
43.6504
39.4964
35.3432
31.1911
27.041
22.8933
18.7501
14.6112
10.4825
6.34473
2.18915
420.592
414.463
410.264
404.783
400.023
395.185
390.584
386.029
381.57
377.161
372.804
368.485
364.197
359.935
355.693
351.467
347.255
343.054
338.861
334.676
330.496
326.32
322.149
317.98
313.814
309.65
305.487
301.326
297.165
293.006
288.847
284.688
280.531
276.373
272.216
268.059
263.902
259.745
255.589
251.433
247.276
243.12
238.964
234.808
230.652
226.496
222.34
218.184
214.028
209.872
205.716
201.56
197.405
193.249
189.093
184.937
180.781
176.625
172.47
168.314
164.158
160.002
155.846
151.691
147.535
143.379
139.223
135.068
130.912
126.756
122.6
118.445
114.289
110.133
105.977
101.822
97.666
93.5102
89.3545
85.1988
81.0431
76.8874
72.7318
68.5761
64.4206
60.2651
56.1097
51.9545
47.7996
43.645
39.491
35.3378
31.1857
27.0356
22.8879
18.7446
14.6058
10.4768
6.33942
2.18469
420.631
414.458
410.251
404.771
400.014
395.177
390.576
386.021
381.562
377.153
372.796
368.477
364.189
359.927
355.685
351.459
347.247
343.046
338.853
334.668
330.488
326.312
322.141
317.972
313.806
309.642
305.479
301.317
297.157
292.998
288.839
284.68
280.523
276.365
272.208
268.051
263.894
259.737
255.581
251.425
247.268
243.112
238.956
234.8
230.644
226.488
222.332
218.176
214.02
209.864
205.708
201.552
197.396
193.241
189.085
184.929
180.773
176.617
172.462
168.306
164.15
159.994
155.838
151.683
147.527
143.371
139.215
135.06
130.904
126.748
122.592
118.437
114.281
110.125
105.969
101.814
97.6579
93.5021
89.3464
85.1907
81.035
76.8793
72.7237
68.568
64.4125
60.257
56.1016
51.9464
47.7915
43.6369
39.4829
35.3297
31.1777
27.0275
22.8799
18.7365
14.5977
10.4683
6.33147
2.17799
420.685
414.451
410.234
404.755
400.002
395.166
390.565
386.01
381.551
377.142
372.785
368.466
364.178
359.916
355.674
351.448
347.236
343.035
338.842
334.657
330.477
326.302
322.13
317.961
313.795
309.631
305.468
301.307
297.146
292.987
288.828
284.67
280.512
276.354
272.197
268.04
263.883
259.727
255.57
251.414
247.257
243.101
238.945
234.789
230.633
226.477
222.321
218.165
214.009
209.853
205.697
201.542
197.386
193.23
189.074
184.918
180.762
176.607
172.451
168.295
164.139
159.983
155.828
151.672
147.516
143.36
139.205
135.049
130.893
126.737
122.581
118.426
114.27
110.114
105.959
101.803
97.6471
93.4913
89.3356
85.1799
81.0242
76.8685
72.7129
68.5573
64.4017
60.2462
56.0908
51.9356
47.7807
43.6261
39.4721
35.3189
31.1669
27.0167
22.8691
18.7257
14.5868
10.457
6.32087
2.16905
420.753
414.441
410.212
404.736
399.987
395.153
390.551
385.997
381.537
377.128
372.772
368.452
364.165
359.902
355.66
351.435
347.223
343.021
338.829
334.643
330.463
326.288
322.116
317.948
313.782
309.617
305.455
301.293
297.133
292.973
288.814
284.656
280.498
276.341
272.183
268.027
263.87
259.713
255.557
251.4
247.244
243.088
238.932
234.776
230.62
226.464
222.308
218.152
213.996
209.84
205.684
201.528
197.372
193.216
189.06
184.905
180.749
176.593
172.437
168.281
164.126
159.97
155.814
151.658
147.503
143.347
139.191
135.035
130.88
126.724
122.568
118.412
114.257
110.101
105.945
101.789
97.6336
93.4778
89.3221
85.1664
81.0107
76.855
72.6994
68.5438
64.3882
60.2327
56.0773
51.9221
47.7672
43.6126
39.4586
35.3054
31.1534
27.0032
22.8556
18.7122
14.5733
10.4429
6.30764
2.15787
420.836
414.429
410.186
404.713
399.969
395.137
390.535
385.98
381.521
377.112
372.755
368.436
364.148
359.886
355.644
351.418
347.206
343.005
338.813
334.627
330.447
326.272
322.1
317.932
313.765
309.601
305.438
301.277
297.117
292.957
288.798
284.64
280.482
276.325
272.167
268.01
263.854
259.697
255.54
251.384
247.228
243.072
238.915
234.759
230.603
226.447
222.291
218.135
213.979
209.824
205.668
201.512
197.356
193.2
189.044
184.888
180.733
176.577
172.421
168.265
164.109
159.954
155.798
151.642
147.486
143.331
139.175
135.019
130.863
126.708
122.552
118.396
114.24
110.085
105.929
101.773
97.6174
93.4616
89.3059
85.1502
80.9945
76.8388
72.6832
68.5276
64.372
60.2165
56.0612
51.906
47.751
43.5964
39.4424
35.2892
31.1372
26.9871
22.8394
18.6959
14.557
10.4259
6.29177
2.14443
420.935
414.412
410.156
404.687
399.948
395.118
390.516
385.961
381.501
377.093
372.736
368.417
364.129
359.867
355.625
351.399
347.187
342.986
338.794
334.608
330.428
326.253
322.081
317.913
313.746
309.582
305.419
301.258
297.098
292.938
288.779
284.621
280.463
276.306
272.148
267.991
263.835
259.678
255.522
251.365
247.209
243.053
238.897
234.741
230.584
226.428
222.272
218.117
213.961
209.805
205.649
201.493
197.337
193.181
189.025
184.87
180.714
176.558
172.402
168.246
164.091
159.935
155.779
151.623
147.467
143.312
139.156
135
130.844
126.689
122.533
118.377
114.221
110.066
105.91
101.754
97.5985
93.4428
89.287
85.1313
80.9756
76.8199
72.6643
68.5087
64.3531
60.1976
56.0423
51.8871
47.7321
43.5775
39.4235
35.2703
31.1183
26.9682
22.8206
18.677
14.5381
10.4063
6.27327
2.12873
421.052
414.391
410.12
404.656
399.924
395.096
390.494
385.939
381.479
377.071
372.714
368.395
364.107
359.845
355.603
351.378
347.166
342.964
338.772
334.586
330.407
326.231
322.06
317.891
313.725
309.561
305.398
301.236
297.076
292.917
288.758
284.599
280.442
276.284
272.127
267.97
263.813
259.656
255.5
251.344
247.187
243.031
238.875
234.719
230.563
226.407
222.251
218.095
213.939
209.783
205.627
201.471
197.315
193.16
189.004
184.848
180.692
176.536
172.381
168.225
164.069
159.913
155.757
151.602
147.446
143.29
139.134
134.979
130.823
126.667
122.511
118.356
114.2
110.044
105.888
101.733
97.5769
93.4212
89.2654
85.1097
80.954
76.7984
72.6427
68.4871
64.3315
60.176
56.0207
51.8655
47.7105
43.5559
39.4019
35.2487
31.0967
26.9466
22.799
18.6554
14.5164
10.3838
6.25215
2.11075
421.188
414.365
410.08
404.623
399.897
395.071
390.469
385.914
381.455
377.046
372.689
368.37
364.083
359.82
355.579
351.353
347.141
342.94
338.748
334.562
330.382
326.207
322.035
317.867
313.701
309.536
305.374
301.212
297.052
292.892
288.733
284.575
280.417
276.26
272.103
267.946
263.789
259.632
255.476
251.319
247.163
243.007
238.851
234.695
230.539
226.383
222.227
218.071
213.915
209.759
205.603
201.447
197.291
193.135
188.98
184.824
180.668
176.512
172.356
168.2
164.045
159.889
155.733
151.577
147.422
143.266
139.11
134.954
130.799
126.643
122.487
118.331
114.176
110.02
105.864
101.708
97.5526
93.3969
89.2412
85.0854
80.9297
76.7741
72.6184
68.4628
64.3072
60.1518
55.9964
51.8412
47.6862
43.5317
39.3776
35.2245
31.0725
26.9223
22.7748
18.631
14.4921
10.3587
6.22841
2.09048
421.345
414.331
410.035
404.585
399.866
395.044
390.441
385.887
381.427
377.018
372.662
368.343
364.055
359.793
355.551
351.326
347.114
342.913
338.72
334.535
330.355
326.18
322.008
317.84
313.674
309.509
305.347
301.185
297.025
292.865
288.706
284.548
280.39
276.233
272.076
267.919
263.762
259.605
255.449
251.292
247.136
242.98
238.824
234.668
230.512
226.356
222.2
218.044
213.888
209.732
205.576
201.42
197.264
193.108
188.953
184.797
180.641
176.485
172.329
168.173
164.018
159.862
155.706
151.55
147.395
143.239
139.083
134.927
130.772
126.616
122.46
118.304
114.149
109.993
105.837
101.681
97.5256
93.3699
89.2142
85.0585
80.9028
76.7471
72.5914
68.4358
64.2803
60.1248
55.9694
51.8142
47.6593
43.5047
39.3507
35.1975
31.0455
26.8954
22.7478
18.604
14.465
10.3308
6.20207
2.06788
421.525
414.29
409.985
404.545
399.833
395.013
390.41
385.856
381.396
376.988
372.632
368.312
364.025
359.763
355.521
351.296
347.084
342.883
338.691
334.505
330.325
326.15
321.979
317.81
313.644
309.48
305.317
301.156
296.995
292.836
288.677
284.518
280.361
276.203
272.046
267.889
263.732
259.576
255.419
251.263
247.106
242.95
238.794
234.638
230.482
226.326
222.17
218.014
213.858
209.702
205.546
201.39
197.235
193.079
188.923
184.767
180.611
176.455
172.3
168.144
163.988
159.832
155.676
151.521
147.365
143.209
139.053
134.898
130.742
126.586
122.43
118.275
114.119
109.963
105.807
101.652
97.4959
93.3402
89.1845
85.0288
80.8731
76.7174
72.5618
68.4062
64.2506
60.0951
55.9398
51.7846
47.6296
43.475
39.321
35.1678
31.0159
26.8657
22.7182
18.5743
14.4353
10.3003
6.17313
2.04295
421.731
414.238
409.93
404.502
399.796
394.98
390.376
385.823
381.363
376.955
372.599
368.28
363.992
359.73
355.489
351.264
347.052
342.851
338.658
334.473
330.293
326.118
321.946
317.778
313.612
309.447
305.285
301.123
296.963
292.803
288.644
284.486
280.328
276.171
272.014
267.857
263.7
259.543
255.387
251.23
247.074
242.918
238.762
234.606
230.45
226.294
222.138
217.982
213.826
209.67
205.514
201.358
197.202
193.046
188.891
184.735
180.579
176.423
172.267
168.112
163.956
159.8
155.644
151.488
147.333
143.177
139.021
134.865
130.71
126.554
122.398
118.242
114.087
109.931
105.775
101.619
97.4637
93.3079
89.1522
84.9965
80.8408
76.6851
72.5295
68.3739
64.2183
60.0628
55.9075
51.7523
47.5973
43.4427
39.2887
35.1356
30.9836
26.8335
22.686
18.542
14.4029
10.2673
6.14167
2.0157
421.966
414.175
409.871
404.456
399.756
394.944
390.34
385.787
381.327
376.919
372.563
368.244
363.957
359.695
355.454
351.229
347.017
342.816
338.623
334.438
330.258
326.083
321.912
317.743
313.577
309.413
305.25
301.089
296.928
292.769
288.61
284.451
280.294
276.136
271.979
267.822
263.665
259.509
255.352
251.196
247.039
242.883
238.727
234.571
230.415
226.259
222.103
217.947
213.791
209.635
205.479
201.323
197.168
193.012
188.856
184.7
180.544
176.388
172.233
168.077
163.921
159.765
155.61
151.454
147.298
143.142
138.986
134.831
130.675
126.519
122.363
118.208
114.052
109.896
105.74
101.585
97.429
93.2732
89.1175
84.9618
80.8061
76.6504
72.4948
68.3392
64.1836
60.0281
55.8728
51.7176
47.5626
43.4081
39.2541
35.1009
30.949
26.7989
22.6514
18.5073
14.3682
10.232
6.1079
1.98629
422.238
414.097
409.807
404.408
399.714
394.905
390.301
385.749
381.289
376.881
372.525
368.207
363.92
359.658
355.417
351.192
346.98
342.779
338.587
334.401
330.221
326.046
321.875
317.706
313.54
309.376
305.213
301.052
296.892
292.732
288.573
284.415
280.257
276.099
271.942
267.785
263.629
259.472
255.315
251.159
247.003
242.847
238.69
234.534
230.378
226.222
222.066
217.91
213.754
209.599
205.443
201.287
197.131
192.975
188.819
184.663
180.508
176.352
172.196
168.04
163.884
159.729
155.573
151.417
147.261
143.106
138.95
134.794
130.638
126.483
122.327
118.171
114.015
109.86
105.704
101.548
97.3923
93.2366
89.0809
84.9252
80.7695
76.6138
72.4581
68.3025
64.147
59.9915
55.8361
51.6809
47.526
43.3714
39.2174
35.0643
30.9124
26.7622
22.6148
18.4707
14.3314
10.1947
6.07206
1.95488
422.543
414.002
409.741
404.359
399.669
394.864
390.26
385.708
381.248
376.841
372.486
368.167
363.881
359.619
355.378
351.153
346.941
342.74
338.548
334.363
330.183
326.008
321.836
317.668
313.502
309.337
305.175
301.013
296.853
292.694
288.535
284.376
280.219
276.061
271.904
267.747
263.59
259.434
255.277
251.121
246.964
242.808
238.652
234.496
230.34
226.184
222.028
217.872
213.716
209.56
205.404
201.248
197.093
192.937
188.781
184.625
180.469
176.313
172.158
168.002
163.846
159.69
155.534
151.379
147.223
143.067
138.911
134.756
130.6
126.444
122.288
118.133
113.977
109.821
105.665
101.51
97.3539
93.1982
89.0425
84.8868
80.7311
76.5754
72.4198
68.2642
64.1086
59.9531
55.7978
51.6426
47.4876
43.3331
39.1791
35.0259
30.874
26.7239
22.5765
18.4324
14.2931
10.1559
6.03435
1.92162
422.882
413.891
409.676
404.312
399.625
394.825
390.22
385.67
381.21
376.804
372.448
368.13
363.843
359.582
355.341
351.116
346.904
342.704
338.511
334.326
330.146
325.971
321.8
317.631
313.465
309.301
305.138
300.977
296.817
292.657
288.498
284.34
280.182
276.025
271.867
267.711
263.554
259.397
255.241
251.084
246.928
242.772
238.616
234.46
230.304
226.148
221.992
217.836
213.68
209.524
205.368
201.212
197.056
192.9
188.744
184.589
180.433
176.277
172.121
167.965
163.81
159.654
155.498
151.342
147.187
143.031
138.875
134.719
130.563
126.408
122.252
118.096
113.94
109.785
105.629
101.473
97.3175
93.1618
89.0061
84.8504
80.6947
76.539
72.3834
68.2278
64.0722
59.9167
55.7614
51.6062
47.4512
43.2967
39.1427
34.9896
30.8377
26.6876
22.5401
18.396
14.2566
10.1196
5.99898
1.89058
423.4
413.799
409.64
404.295
399.608
394.812
390.208
385.658
381.199
376.793
372.438
368.12
363.834
359.573
355.332
351.107