/*--------------------------------*- C++ -*----------------------------------*\
  =========                 |
  \\      /  F ield         | OpenFOAM: The Open Source CFD Toolbox
   \\    /   O peration     | Website:  https://openfoam.org
    \\  /    A nd           | Version:  7
     \\/     M anipulation  |
\*---------------------------------------------------------------------------*/
FoamFile
{
    version     2.0;
    format      ascii;
    class       volScalarField;
    location    "3";
    object      pB;
}
// * * * * * * * * * * * * * * * * * * * * * * * * * * * * * * * * * * * * * //

dimensions      [1 1 -3 0 0 -1 0];

internalField   nonuniform List<scalar> 
4000
(
28.4961
65.5217
85.7758
93.2349
93.0663
87.8983
80.1831
71.3331
62.3208
53.6852
45.7356
38.6096
32.3467
26.9227
22.2793
18.3402
15.0234
12.2473
9.93555
8.01835
6.43397
5.12846
4.05534
3.17513
2.45439
1.86508
1.3838
0.991198
0.671166
0.410462
0.198237
0.025553
-0.114947
-0.229193
-0.322079
-0.397595
-0.458986
-0.508865
-0.549411
-0.582369
-0.609151
-0.630908
-0.648605
-0.662979
-0.674663
-0.684155
-0.691879
-0.698143
-0.703239
-0.707376
-0.710738
-0.713457
-0.715673
-0.717464
-0.718922
-0.720099
-0.721063
-0.721832
-0.72246
-0.722963
-0.72337
-0.723681
-0.723934
-0.724111
-0.724242
-0.724313
-0.72434
-0.724306
-0.724223
-0.724065
-0.723835
-0.723497
-0.723037
-0.7224
-0.721549
-0.720397
-0.718861
-0.716804
-0.714076
-0.710448
-0.705661
-0.699346
-0.691067
-0.680253
-0.66622
-0.64812
-0.62499
-0.595724
-0.559194
-0.514367
-0.460615
-0.398187
-0.329069
-0.258224
-0.195566
-0.15786
-0.168521
-0.246692
-0.364392
-0.362253
30.649
65.5366
85.0368
92.4239
92.2837
87.2118
79.5914
70.8328
61.9009
53.3365
45.4487
38.376
32.1586
26.7732
22.1623
18.2505
14.9564
12.1992
9.90293
7.99853
6.42464
5.12771
4.0616
3.1871
2.471
1.88545
1.40723
1.0171
0.699068
0.439984
0.229063
0.0574343
-0.082214
-0.195777
-0.288112
-0.363181
-0.424216
-0.47381
-0.514125
-0.546897
-0.573532
-0.595169
-0.61277
-0.627069
-0.638692
-0.648135
-0.65582
-0.662054
-0.667125
-0.671241
-0.674588
-0.677294
-0.6795
-0.681284
-0.682736
-0.683907
-0.684867
-0.685633
-0.686259
-0.686759
-0.687164
-0.687475
-0.687726
-0.687903
-0.688034
-0.688104
-0.688131
-0.688097
-0.688015
-0.687858
-0.687629
-0.687293
-0.686835
-0.686202
-0.685356
-0.68421
-0.682682
-0.680637
-0.677924
-0.674317
-0.669556
-0.663278
-0.655048
-0.644299
-0.630352
-0.612366
-0.589388
-0.560321
-0.524055
-0.479572
-0.426267
-0.364404
-0.295963
-0.225834
-0.16366
-0.125398
-0.132481
-0.199848
-0.297059
-0.289117
31.9625
65.4036
83.9715
91.1808
91.0415
86.085
78.5984
69.9776
61.1733
52.7254
44.9409
37.9589
31.8199
26.5018
21.948
18.0844
14.8306
12.1069
9.83856
7.95716
6.40221
5.12082
4.06744
3.20331
2.49568
1.91702
1.4444
1.0588
0.744451
0.48835
0.279837
0.110158
-0.0279132
-0.140208
-0.231518
-0.305759
-0.366129
-0.415189
-0.455071
-0.487494
-0.513852
-0.535266
-0.552685
-0.566841
-0.578349
-0.587699
-0.59531
-0.601486
-0.606509
-0.610587
-0.613904
-0.616586
-0.618773
-0.620541
-0.621981
-0.623142
-0.624093
-0.624854
-0.625474
-0.62597
-0.626372
-0.626681
-0.626929
-0.627106
-0.627235
-0.627305
-0.627331
-0.627299
-0.627217
-0.627062
-0.626836
-0.626503
-0.626051
-0.625425
-0.624588
-0.623454
-0.621943
-0.61992
-0.617237
-0.61367
-0.608962
-0.602755
-0.594618
-0.583992
-0.570207
-0.552435
-0.529733
-0.501027
-0.465226
-0.421339
-0.368781
-0.307827
-0.240415
-0.171265
-0.109518
-0.0698187
-0.0708247
-0.12236
-0.194319
-0.178378
32.0569
64.7675
82.4186
89.3689
89.2148
84.4002
77.0954
68.6678
60.0477
51.7697
44.1377
37.2902
31.2682
26.0507
21.5825
17.7913
14.5982
11.9253
9.699
7.85242
6.32615
5.06833
4.03427
3.18592
2.49117
1.923
1.4589
1.08023
0.771504
0.519965
0.315142
0.148448
0.0127953
-0.0975483
-0.187284
-0.260252
-0.319596
-0.36783
-0.407046
-0.438931
-0.464858
-0.485925
-0.503064
-0.516995
-0.528324
-0.53753
-0.545025
-0.551109
-0.556058
-0.560075
-0.563345
-0.56599
-0.568145
-0.569889
-0.57131
-0.572455
-0.573393
-0.574144
-0.574756
-0.575245
-0.575642
-0.575947
-0.576191
-0.576366
-0.576494
-0.576563
-0.576589
-0.576558
-0.576477
-0.576326
-0.576103
-0.575777
-0.575332
-0.574717
-0.573894
-0.57278
-0.571294
-0.569307
-0.566669
-0.563164
-0.558539
-0.552441
-0.544449
-0.534013
-0.520476
-0.503029
-0.480748
-0.452586
-0.417481
-0.374475
-0.323008
-0.263353
-0.197371
-0.129503
-0.0681446
-0.0261325
-0.0186495
-0.0499438
-0.092621
-0.064459
31.2501
63.5052
80.3482
86.9987
86.8242
82.1744
75.0955
66.9136
58.5317
50.4755
43.0436
36.3735
30.506
25.4217
21.0671
17.3719
14.2596
11.654
9.48377
7.68356
6.19552
4.96913
3.96084
3.13359
2.45604
1.9019
1.44922
1.07983
0.778646
0.533226
0.33336
0.170678
0.0382781
-0.0694378
-0.15705
-0.228302
-0.286259
-0.333376
-0.371691
-0.402847
-0.428188
-0.448784
-0.465541
-0.479167
-0.490252
-0.49926
-0.506597
-0.512554
-0.517401
-0.521336
-0.52454
-0.527132
-0.529245
-0.530955
-0.532348
-0.533472
-0.534391
-0.535129
-0.535729
-0.536208
-0.536598
-0.536898
-0.537137
-0.537309
-0.537434
-0.537502
-0.537528
-0.537498
-0.53742
-0.537273
-0.537055
-0.536737
-0.536302
-0.535702
-0.534898
-0.53381
-0.532359
-0.53042
-0.527844
-0.524424
-0.519909
-0.513959
-0.506161
-0.495981
-0.482778
-0.465765
-0.444044
-0.416604
-0.382419
-0.340567
-0.290515
-0.232525
-0.16834
-0.102024
-0.0410316
0.00395928
0.0215936
0.012989
0.00136777
0.0413178
29.9068
61.626
77.7551
84.0924
83.8996
79.4364
72.6243
64.737
56.6449
48.8604
41.6747
35.2232
29.5468
24.6273
20.4134
16.8372
13.8249
11.3031
9.20234
7.45972
6.01921
4.83191
3.85569
3.05468
2.39858
1.86194
1.42351
1.06571
0.773934
0.536161
0.342496
0.184837
0.0565087
-0.047912
-0.132859
-0.201956
-0.258169
-0.30388
-0.341058
-0.371295
-0.395895
-0.415895
-0.43217
-0.445409
-0.456182
-0.46494
-0.472073
-0.477868
-0.482584
-0.486414
-0.489533
-0.492058
-0.494115
-0.495782
-0.497139
-0.498235
-0.499131
-0.499851
-0.500436
-0.500903
-0.501282
-0.501576
-0.501807
-0.501976
-0.502098
-0.502165
-0.50219
-0.502162
-0.502086
-0.501944
-0.501733
-0.501425
-0.501002
-0.500421
-0.49964
-0.498586
-0.497179
-0.495299
-0.492802
-0.489487
-0.485112
-0.479346
-0.471791
-0.461931
-0.449144
-0.432673
-0.411649
-0.385102
-0.352049
-0.311611
-0.263282
-0.207298
-0.145251
-0.0807522
-0.0201724
0.0281675
0.0568057
0.0716946
0.091076
0.13858
28.2492
59.1856
74.6485
80.6713
80.4674
76.212
69.7046
62.1581
54.4047
46.9392
40.0439
33.8509
28.4006
23.6762
19.629
16.1941
13.3006
10.878
8.85988
7.18569
5.80167
4.66086
3.72279
2.95304
2.32248
1.80668
1.38524
1.04127
0.760741
0.5321
0.345847
0.194197
0.0707431
-0.0297292
-0.11148
-0.177989
-0.232107
-0.276125
-0.311936
-0.341065
-0.36477
-0.384049
-0.39974
-0.412508
-0.422902
-0.431355
-0.438242
-0.443839
-0.448395
-0.452095
-0.455109
-0.457552
-0.459541
-0.461154
-0.462467
-0.463528
-0.464395
-0.465092
-0.465659
-0.466111
-0.466477
-0.466762
-0.466986
-0.467149
-0.467267
-0.467332
-0.467356
-0.46733
-0.467256
-0.46712
-0.466917
-0.466621
-0.466213
-0.465654
-0.464902
-0.463888
-0.462533
-0.460724
-0.458321
-0.455133
-0.450924
-0.44538
-0.438115
-0.428636
-0.416345
-0.400519
-0.380323
-0.354835
-0.32312
-0.284344
-0.238027
-0.18437
-0.124786
-0.062377
-0.00235385
0.0493775
0.0891005
0.12694
0.175499
0.225128
26.4046
56.2546
71.0494
76.7581
76.5528
72.5263
66.3588
59.1961
51.8273
44.7259
38.1629
32.2662
27.0754
22.5752
18.7198
15.4473
12.6904
10.3822
8.45915
6.86379
5.54485
4.45761
3.56354
2.82983
2.22876
1.73702
1.33521
1.00722
0.739691
0.521616
0.343945
0.199258
0.0814554
-0.0144344
-0.092472
-0.155973
-0.207653
-0.249698
-0.283912
-0.311748
-0.334406
-0.35284
-0.367846
-0.380061
-0.390009
-0.398101
-0.404696
-0.410059
-0.414426
-0.417973
-0.420863
-0.423206
-0.425115
-0.426663
-0.427924
-0.428943
-0.429775
-0.430445
-0.430989
-0.431423
-0.431774
-0.432049
-0.432263
-0.432419
-0.432532
-0.432595
-0.432618
-0.432594
-0.432523
-0.432393
-0.432199
-0.431916
-0.431527
-0.430992
-0.430274
-0.429305
-0.428011
-0.426285
-0.423991
-0.420949
-0.416934
-0.411646
-0.404717
-0.395678
-0.38396
-0.368877
-0.349637
-0.325367
-0.295185
-0.258306
-0.214272
-0.163245
-0.106438
-0.0464133
0.0127999
0.0676405
0.117819
0.176832
0.25111
0.297892
24.4485
52.9054
66.9887
72.3794
72.1829
68.4053
62.6105
55.8716
48.9304
42.2353
36.0443
30.4797
25.5801
21.3318
17.6917
14.6018
11.9986
9.8189
8.0029
6.49622
5.25053
4.22362
3.3791
2.686
2.11814
1.65355
1.27387
0.963921
0.71107
0.504932
0.336964
0.200157
0.0887512
-0.00194645
-0.0757732
-0.135859
-0.184771
-0.224572
-0.256968
-0.28333
-0.304793
-0.32226
-0.336483
-0.348064
-0.357498
-0.365177
-0.371436
-0.376527
-0.380675
-0.384046
-0.386792
-0.389019
-0.390834
-0.392307
-0.393507
-0.394477
-0.395269
-0.395906
-0.396424
-0.396837
-0.397171
-0.397432
-0.397635
-0.397783
-0.397891
-0.39795
-0.397972
-0.397949
-0.397882
-0.397759
-0.397574
-0.397306
-0.396937
-0.396431
-0.395751
-0.394833
-0.393609
-0.391975
-0.389806
-0.386929
-0.383133
-0.378133
-0.371584
-0.363042
-0.351971
-0.337725
-0.319561
-0.296659
-0.268193
-0.23343
-0.191935
-0.143823
-0.0900983
-0.0327818
0.0252495
0.0825991
0.141955
0.219268
0.314595
0.354753
22.4253
49.2058
62.5042
67.5656
67.3866
63.8772
58.4851
52.2071
45.7332
39.4839
33.702
28.5032
23.9247
19.9541
16.5517
13.6633
11.2298
9.19202
7.49421
6.08552
4.92079
3.96056
3.17083
2.52264
1.99154
1.55699
1.20182
0.911849
0.675268
0.482369
0.325167
0.197109
0.0928105
0.0078856
-0.0612559
-0.11754
-0.163365
-0.200663
-0.231029
-0.255744
-0.275871
-0.292254
-0.305599
-0.316467
-0.325325
-0.332536
-0.338416
-0.343201
-0.3471
-0.35027
-0.352853
-0.354949
-0.356657
-0.358043
-0.359174
-0.360088
-0.360833
-0.361433
-0.361921
-0.36231
-0.362623
-0.362868
-0.36306
-0.363198
-0.363299
-0.363354
-0.363375
-0.363353
-0.36329
-0.363174
-0.363
-0.362748
-0.362402
-0.361926
-0.361288
-0.360428
-0.35928
-0.35775
-0.355718
-0.353024
-0.349471
-0.344791
-0.338663
-0.330672
-0.320317
-0.306997
-0.290021
-0.268626
-0.242047
-0.209603
-0.170884
-0.125955
-0.0756135
-0.0213587
0.0350006
0.0939666
0.160661
0.252549
0.363541
0.394727
20.3602
45.2152
57.6374
62.3503
62.1951
58.9714
54.0098
48.2265
42.2566
36.4897
31.1512
26.3495
22.1197
18.4511
15.3071
12.638
10.389
8.50568
6.9365
5.63448
4.55789
3.67028
2.94023
2.34098
1.84995
1.44814
1.11971
0.851541
0.632722
0.454283
0.308845
0.190353
0.0938298
0.0152243
-0.0487844
-0.1009
-0.143339
-0.177888
-0.206023
-0.228927
-0.247582
-0.262772
-0.275148
-0.285229
-0.293448
-0.300142
-0.305602
-0.310046
-0.313669
-0.316615
-0.319016
-0.320965
-0.322554
-0.323842
-0.324894
-0.325744
-0.326438
-0.326996
-0.327451
-0.327811
-0.328102
-0.328329
-0.328507
-0.328634
-0.328727
-0.328778
-0.328796
-0.328775
-0.328716
-0.328607
-0.328446
-0.328212
-0.32789
-0.327447
-0.326856
-0.326057
-0.324994
-0.323576
-0.321695
-0.319201
-0.315913
-0.311584
-0.305915
-0.298524
-0.288951
-0.276639
-0.260954
-0.241194
-0.216658
-0.18672
-0.150995
-0.109501
-0.0628383
-0.0120268
0.0420667
0.101512
0.173271
0.27543
0.396404
0.417652
18.2676
40.9846
52.4307
56.7694
56.6416
53.7194
49.2133
43.9554
38.523
33.2717
28.4082
24.0323
20.1768
16.8324
13.966
11.5323
9.48169
7.76439
6.33347
5.14613
4.16431
3.3548
2.68894
2.14236
1.69445
1.3279
1.02826
0.783573
0.583897
0.421049
0.288302
0.180135
0.0920086
0.0202313
-0.0382276
-0.0858331
-0.124606
-0.156177
-0.181892
-0.20283
-0.219888
-0.233779
-0.245101
-0.254325
-0.261849
-0.267977
-0.272978
-0.277048
-0.280369
-0.283069
-0.285271
-0.287056
-0.288514
-0.289695
-0.29066
-0.291439
-0.292076
-0.292586
-0.293004
-0.293333
-0.293599
-0.293806
-0.293968
-0.294083
-0.294168
-0.294213
-0.29423
-0.294208
-0.294154
-0.294053
-0.293905
-0.293688
-0.293393
-0.292987
-0.292445
-0.291713
-0.290741
-0.289444
-0.287725
-0.285447
-0.282445
-0.278493
-0.27332
-0.266576
-0.257843
-0.246614
-0.232315
-0.214307
-0.191958
-0.164697
-0.132166
-0.0943417
-0.0516469
-0.00468169
0.0464715
0.105078
0.179325
0.287127
0.41242
0.423954
16.1552
36.5568
46.9264
50.8605
50.7607
48.1537
44.1255
39.4208
34.5559
29.8503
25.4904
21.5664
18.1083
15.1083
12.5369
10.3536
8.51376
6.97298
5.68909
4.62371
3.74271
3.01629
2.41875
1.92821
1.52621
1.1972
0.92823
0.708572
0.529301
0.38308
0.263871
0.166724
0.0875646
0.0230825
-0.0294434
-0.0722245
-0.107074
-0.135454
-0.158576
-0.177406
-0.192749
-0.205245
-0.215433
-0.223735
-0.230509
-0.236028
-0.240533
-0.244199
-0.247192
-0.249626
-0.251611
-0.25322
-0.254534
-0.255598
-0.256468
-0.257171
-0.257744
-0.258204
-0.25858
-0.258875
-0.259114
-0.259298
-0.259444
-0.259545
-0.25962
-0.259659
-0.259673
-0.259652
-0.259602
-0.259509
-0.259374
-0.259177
-0.25891
-0.258542
-0.258053
-0.257392
-0.256517
-0.255349
-0.253804
-0.251756
-0.249059
-0.245509
-0.240864
-0.234808
-0.226969
-0.216893
-0.204065
-0.187917
-0.167882
-0.143453
-0.114299
-0.0803627
-0.0419145
0.000790865
0.0482776
0.104613
0.178611
0.28733
0.411538
0.414509
14.028
31.9681
41.1653
44.662
44.5886
42.3084
38.7778
34.6507
30.3801
26.247
22.416
18.9671
15.9273
13.2898
11.029
9.10921
7.49146
6.1366
5.00759
4.0707
3.29593
2.65708
2.13154
1.7001
1.3465
1.05708
0.820471
0.627223
0.469492
0.340827
0.235921
0.15042
0.0807407
0.0239751
-0.0222718
-0.0599444
-0.0906373
-0.115635
-0.136005
-0.152596
-0.166118
-0.177131
-0.186114
-0.193434
-0.199408
-0.204277
-0.208252
-0.211487
-0.21413
-0.216278
-0.21803
-0.21945
-0.22061
-0.221548
-0.222316
-0.222936
-0.223441
-0.223845
-0.224177
-0.224435
-0.224645
-0.224805
-0.224931
-0.225018
-0.225083
-0.225114
-0.225125
-0.225104
-0.225059
-0.224974
-0.224853
-0.224677
-0.224439
-0.224112
-0.223678
-0.223093
-0.22232
-0.221288
-0.219926
-0.218121
-0.215746
-0.21262
-0.208532
-0.203203
-0.196307
-0.187443
-0.176165
-0.16197
-0.144366
-0.122905
-0.0972927
-0.0674439
-0.0335068
0.00452707
0.047601
0.100191
0.171172
0.276194
0.39434
0.390541
11.8889
27.2492
35.1867
38.2128
38.1624
36.2186
33.2027
29.6744
26.0212
22.484
19.2042
16.2509
13.6475
11.3884
9.45171
7.80721
6.42135
5.26066
4.29344
3.49078
2.82699
2.27963
1.82934
1.45966
1.15666
0.908654
0.705881
0.540261
0.40507
0.294782
0.204851
0.131549
0.0718034
0.0231264
-0.0165351
-0.0488476
-0.075177
-0.0966224
-0.114101
-0.128338
-0.139943
-0.149396
-0.157108
-0.163393
-0.168523
-0.172705
-0.17612
-0.178899
-0.18117
-0.183016
-0.184522
-0.18574
-0.186737
-0.187541
-0.1882
-0.188731
-0.189164
-0.189509
-0.189793
-0.190012
-0.190189
-0.190323
-0.19043
-0.190502
-0.190554
-0.190579
-0.190586
-0.190564
-0.190523
-0.190447
-0.19034
-0.190186
-0.189979
-0.189694
-0.189318
-0.188812
-0.188146
-0.187258
-0.186086
-0.184536
-0.182498
-0.179816
-0.176311
-0.171741
-0.165829
-0.158233
-0.14857
-0.136413
-0.12134
-0.102968
-0.0810412
-0.0554592
-0.0262782
0.00668845
0.044617
0.0920168
0.15731
0.254304
0.361957
0.353541
9.74014
22.4263
29.0277
31.5521
31.5201
29.9203
27.4334
24.522
21.506
18.5846
15.8749
13.4346
11.283
9.41586
7.81514
6.45583
5.31029
4.35084
3.5513
2.88777
2.33903
1.88654
1.51428
1.20864
0.958133
0.753078
0.585416
0.448468
0.336674
0.245468
0.17109
0.110462
0.0610403
0.0207722
-0.0120405
-0.038776
-0.0605634
-0.0783098
-0.0927746
-0.104558
-0.114165
-0.121989
-0.128375
-0.133578
-0.137826
-0.141289
-0.144118
-0.14642
-0.148301
-0.149829
-0.151076
-0.152084
-0.152909
-0.153572
-0.154116
-0.154553
-0.15491
-0.155192
-0.155425
-0.155603
-0.155746
-0.155853
-0.155938
-0.155994
-0.156034
-0.15605
-0.156053
-0.156031
-0.155994
-0.155927
-0.155835
-0.155703
-0.155528
-0.155287
-0.154972
-0.154548
-0.153992
-0.153253
-0.15228
-0.150994
-0.149305
-0.147083
-0.144183
-0.140401
-0.135511
-0.129228
-0.121239
-0.111189
-0.0987328
-0.0835541
-0.0654357
-0.0442768
-0.0200719
0.0074623
0.0395595
0.0804196
0.137563
0.222634
0.31598
0.305214
7.58367
17.5224
22.724
24.7188
24.7003
23.4504
21.5042
19.2245
16.8618
14.5725
12.4487
10.5356
8.84869
7.38469
6.12955
5.06366
4.16537
3.413
2.78601
2.26568
1.83535
1.4805
1.18856
0.948867
0.752401
0.591578
0.460079
0.352667
0.264981
0.193439
0.135093
0.0875316
0.0487574
0.0171639
-0.00858122
-0.0295595
-0.0466569
-0.0605822
-0.0719329
-0.0811801
-0.0887195
-0.0948587
-0.0998708
-0.103954
-0.107288
-0.110005
-0.112226
-0.114032
-0.115508
-0.116706
-0.117684
-0.118472
-0.119118
-0.119635
-0.120059
-0.120398
-0.120675
-0.120892
-0.12107
-0.121205
-0.121314
-0.121392
-0.121455
-0.121493
-0.121521
-0.121528
-0.121526
-0.121504
-0.121471
-0.121413
-0.121336
-0.121227
-0.121084
-0.120889
-0.120636
-0.120297
-0.119855
-0.119269
-0.1185
-0.117487
-0.116158
-0.114411
-0.112133
-0.109163
-0.105324
-0.100392
-0.0941234
-0.0862397
-0.0764719
-0.0645708
-0.050364
-0.0337598
-0.0147201
0.00706077
0.0327181
0.0658452
0.112686
0.182493
0.258382
0.247421
5.42119
12.5578
16.3094
17.7516
17.7422
16.8465
15.4499
13.8133
12.1166
10.4722
8.9464
7.57179
6.35962
5.30754
4.40552
3.6395
2.99391
2.45319
2.00257
1.62861
1.31933
1.0643
0.854482
0.68221
0.541009
0.425422
0.330911
0.253713
0.190692
0.139272
0.0973337
0.0631486
0.0352762
0.0125662
-0.00593938
-0.0210186
-0.0333091
-0.0433172
-0.0514745
-0.0581195
-0.0635375
-0.067947
-0.0715483
-0.0744807
-0.0768746
-0.0788249
-0.0804205
-0.0817161
-0.082775
-0.0836331
-0.0843333
-0.0848956
-0.0853564
-0.0857226
-0.0860224
-0.0862613
-0.0864552
-0.0866043
-0.0867273
-0.0868176
-0.0868895
-0.0869388
-0.0869774
-0.0869985
-0.0870124
-0.0870115
-0.0870047
-0.0869821
-0.0869525
-0.0869043
-0.0868426
-0.0867564
-0.0866469
-0.0864988
-0.0863094
-0.0860566
-0.0857315
-0.0853023
-0.0847429
-0.0840079
-0.0830472
-0.081786
-0.0801439
-0.0780041
-0.0752394
-0.0716892
-0.0671782
-0.0615066
-0.0544821
-0.0459252
-0.035711
-0.0237661
-0.0100449
0.00571859
0.0244321
0.0488414
0.0836191
0.135467
0.191438
0.18215
3.25441
7.55116
9.81664
10.689
10.685
10.1465
9.30596
8.32071
7.29904
6.30867
5.38958
4.5615
3.83121
3.19735
2.65389
2.19236
1.80338
1.47759
1.20608
0.980769
0.794436
0.640794
0.514386
0.410603
0.325543
0.255915
0.198984
0.152489
0.114532
0.0835633
0.0583044
0.0377179
0.0209303
0.00725441
-0.00388784
-0.0129655
-0.0203651
-0.0263867
-0.0312934
-0.0352887
-0.0385462
-0.0411938
-0.0433573
-0.0451166
-0.0465526
-0.0477208
-0.048678
-0.0494529
-0.0500861
-0.0505971
-0.0510136
-0.0513449
-0.0516168
-0.0518289
-0.0520019
-0.0521373
-0.0522465
-0.0523264
-0.0523923
-0.0524367
-0.0524713
-0.0524906
-0.0525051
-0.0525081
-0.0525082
-0.0524984
-0.0524864
-0.0524633
-0.0524373
-0.0523987
-0.0523526
-0.0522901
-0.0522141
-0.0521135
-0.0519888
-0.0518243
-0.0516178
-0.0513479
-0.0510012
-0.0505492
-0.0499628
-0.0491947
-0.0481991
-0.0469025
-0.0452293
-0.0430817
-0.0403552
-0.0369287
-0.0326873
-0.0275223
-0.0213591
-0.0141497
-0.00586001
0.00368947
0.0150824
0.0300393
0.0514485
0.0833656
0.117656
0.111476
1.08504
2.5197
3.27729
3.56931
3.5683
3.38863
3.10803
2.77906
2.43784
2.10699
1.7999
1.52319
1.27912
1.06726
0.885625
0.731364
0.601352
0.492467
0.401733
0.326443
0.264191
0.212879
0.170663
0.136011
0.107622
0.0843868
0.0653947
0.049895
0.0372449
0.026925
0.0185083
0.0116545
0.00606233
0.00151139
-0.00219293
-0.00520731
-0.00766497
-0.00965821
-0.0112799
-0.0125969
-0.0136702
-0.0145361
-0.0152455
-0.0158184
-0.0162855
-0.0166623
-0.0169734
-0.0172211
-0.0174234
-0.0175828
-0.0177122
-0.0178096
-0.0178902
-0.0179462
-0.0179907
-0.0180212
-0.0180443
-0.0180542
-0.0180622
-0.0180599
-0.0180566
-0.0180457
-0.0180356
-0.0180204
-0.0180065
-0.0179875
-0.0179704
-0.0179467
-0.0179245
-0.0178954
-0.017865
-0.0178264
-0.0177842
-0.0177316
-0.0176722
-0.0175969
-0.0175102
-0.0174013
-0.0172691
-0.017103
-0.0168943
-0.0166242
-0.0162809
-0.0158353
-0.0152639
-0.0145318
-0.013606
-0.0124443
-0.0110101
-0.00926597
-0.00718906
-0.00476166
-0.00197264
0.00124146
0.00508089
0.010132
0.017371
0.0281543
0.0397052
0.0375356
-1.08519
-2.51995
-3.27751
-3.56941
-3.56825
-3.38849
-3.1079
-2.77897
-2.43792
-2.10741
-1.80075
-1.52448
-1.28089
-1.06947
-0.888198
-0.734254
-0.604516
-0.495832
-0.405245
-0.330052
-0.267841
-0.216507
-0.174271
-0.139577
-0.11112
-0.0878158
-0.0687505
-0.0531565
-0.0404197
-0.0300238
-0.0215439
-0.0146201
-0.00897987
-0.00437538
-0.000616965
0.00245271
0.00495406
0.00700312
0.0086778
0.0100488
0.0111677
0.01209
0.0128402
0.0134585
0.0139638
0.0143815
0.014719
0.0150007
0.0152311
0.0154247
0.0155835
0.015721
0.0158326
0.0159333
0.0160175
0.0160926
0.0161557
0.0162162
0.0162664
0.0163156
0.0163569
0.0163983
0.0164328
0.0164665
0.0164943
0.0165225
0.0165447
0.0165689
0.0165874
0.016607
0.0166215
0.0166361
0.0166444
0.016649
0.0166427
0.0166286
0.016595
0.0165424
0.0164592
0.0163388
0.0161685
0.0159393
0.0156283
0.0152203
0.0146865
0.0139987
0.0131183
0.0120086
0.0106274
0.00894086
0.00691944
0.00454919
0.00181397
-0.00134846
-0.00514151
-0.0101493
-0.0173509
-0.0281055
-0.039646
-0.0374974
-3.25456
-7.5514
-9.81686
-10.6891
-10.6849
-10.1463
-9.30583
-8.32064
-7.29913
-6.3091
-5.39044
-4.5628
-3.83299
-3.19957
-2.65647
-2.19525
-1.80655
-1.48096
-1.2096
-0.984381
-0.798088
-0.644422
-0.517994
-0.414168
-0.32904
-0.259342
-0.202338
-0.155749
-0.117706
-0.086661
-0.0613391
-0.0406825
-0.0238466
-0.0101169
0.00107909
0.0102122
0.0176557
0.0237331
0.0286923
0.0327418
0.0360452
0.0387493
0.0409537
0.0427587
0.0442324
0.0454415
0.0464253
0.0472344
0.0478954
0.0484406
0.0488862
0.0492577
0.0495604
0.0498171
0.0500293
0.0502095
0.0503585
0.050489
0.0505969
0.0506929
0.0507719
0.0508434
0.050902
0.0509542
0.0509957
0.051033
0.0510602
0.0510849
0.0510995
0.0511098
0.0511083
0.0510991
0.0510735
0.0510303
0.0509584
0.0508551
0.0507015
0.0504879
0.0501901
0.0497842
0.0492361
0.0485092
0.047546
0.0462873
0.0446517
0.0425483
0.0398669
0.0364921
0.0323032
0.0271954
0.0210872
0.0139345
0.00569799
-0.00380024
-0.0151472
-0.0300607
-0.0514325
-0.0833205
-0.117599
-0.111439
-5.42133
-12.5581
-16.3096
-17.7517
-17.7421
-16.8464
-15.4498
-13.8133
-12.1167
-10.4727
-8.94728
-7.57311
-6.36141
-5.30978
-4.40812
-3.64241
-2.99709
-2.45657
-2.00609
-1.63222
-1.32299
-1.06793
-0.85809
-0.685774
-0.544504
-0.428845
-0.334261
-0.25697
-0.193863
-0.142367
-0.100366
-0.0661113
-0.0381901
-0.0154257
0.00313294
0.0182678
0.0306027
0.0406666
0.0488755
0.0555749
0.0610393
0.0655057
0.0691481
0.0721266
0.0745575
0.0765486
0.078171
0.0795014
0.0805876
0.08148
0.0822087
0.0828111
0.0833024
0.0837129
0.0840512
0.0843349
0.0845685
0.084768
0.0849325
0.0850747
0.0851907
0.0852919
0.0853741
0.0854445
0.0854993
0.0855456
0.0855776
0.0856025
0.0856131
0.0856142
0.0855969
0.085564
0.0855047
0.0854142
0.0852774
0.0850857
0.0848131
0.0844401
0.0839296
0.0832411
0.0823189
0.0810991
0.0794898
0.0773887
0.0746614
0.0711551
0.0666887
0.0610684
0.0540954
0.0455948
0.0354345
0.0235453
0.00987624
-0.00583685
-0.024505
-0.0488711
-0.0836111
-0.135429
-0.191387
-0.182116
-7.58379
-17.5226
-22.7242
-24.7189
-24.7003
-23.4503
-21.5041
-19.2244
-16.8619
-14.573
-12.4496
-10.5369
-8.85051
-7.38696
-6.13217
-5.06659
-4.16857
-3.41639
-2.78954
-2.2693
-1.83901
-1.48413
-1.19217
-0.952428
-0.755893
-0.594996
-0.463424
-0.35592
-0.268149
-0.196531
-0.138122
-0.0904914
-0.0516678
-0.0200191
0.00577827
0.0268126
0.0439548
0.0579358
0.0693371
0.0786392
0.0862254
0.0924219
0.0974756
0.101605
0.104975
0.107733
0.109981
0.111822
0.113325
0.114557
0.115563
0.116391
0.117067
0.117628
0.118089
0.118474
0.11879
0.119057
0.119277
0.119464
0.119616
0.119746
0.119851
0.119939
0.120007
0.120061
0.120098
0.120123
0.12013
0.120122
0.120089
0.120032
0.11994
0.119803
0.119602
0.119323
0.118933
0.118404
0.117684
0.116717
0.115427
0.113722
0.111477
0.108547
0.104745
0.0998572
0.0936322
0.085799
0.0760813
0.0642353
0.0500809
0.0335307
0.0145416
-0.00719009
-0.032803
-0.0658872
-0.11269
-0.182466
-0.25834
-0.247391
-9.74025
-22.4265
-29.0279
-31.5522
-31.52
-29.9202
-27.4333
-24.522
-21.5062
-18.5851
-15.8759
-13.436
-11.2849
-9.41816
-7.81779
-6.45879
-5.31351
-4.35425
-3.55484
-2.8914
-2.3427
-1.89017
-1.51789
-1.2122
-0.961621
-0.756489
-0.588756
-0.451715
-0.339838
-0.248557
-0.174115
-0.113418
-0.063946
-0.0236219
0.00924219
0.0360341
0.0578668
0.0756689
0.0901831
0.102022
0.111676
0.119558
0.125986
0.131236
0.13552
0.139023
0.14188
0.144218
0.146125
0.147687
0.148961
0.150008
0.150863
0.15157
0.15215
0.152632
0.153028
0.15336
0.153632
0.153863
0.15405
0.154207
0.154334
0.154439
0.154519
0.154582
0.154623
0.154648
0.15465
0.154633
0.154585
0.154506
0.15438
0.154198
0.153934
0.153571
0.153066
0.152383
0.151459
0.150221
0.148571
0.146392
0.143526
0.139785
0.134931
0.128692
0.120745
0.110745
0.0983373
0.083212
0.0651439
0.0440371
0.0198806
-0.00760607
-0.0396602
-0.0804778
-0.137583
-0.222622
-0.31595
-0.305188
-11.889
-27.2493
-35.1868
-38.2129
-38.1623
-36.2185
-33.2026
-29.6745
-26.0214
-22.4846
-19.2052
-16.2523
-13.6494
-11.3907
-9.4544
-7.81019
-6.4246
-5.26409
-4.297
-3.49442
-2.83066
-2.28327
-1.83295
-1.46321
-1.16014
-0.912058
-0.709213
-0.543501
-0.408227
-0.297865
-0.207871
-0.1345
-0.0747033
-0.0259697
0.0137427
0.0461118
0.0724868
0.093988
0.111515
0.125808
0.137461
0.146971
0.154727
0.161059
0.166224
0.170446
0.17389
0.176705
0.179002
0.180881
0.182413
0.183671
0.184697
0.185544
0.186238
0.186814
0.187286
0.18768
0.188003
0.188274
0.188494
0.188678
0.188825
0.188946
0.189038
0.189108
0.189153
0.189178
0.189176
0.18915
0.189087
0.188985
0.188828
0.188601
0.188277
0.187831
0.187215
0.186383
0.18526
0.183759
0.18176
0.179121
0.175652
0.171123
0.165249
0.157696
0.148075
0.135965
0.120939
0.102618
0.080739
0.0552064
0.0260712
-0.00684984
-0.0447369
-0.0920947
-0.157349
-0.25431
-0.361941
-0.353522
-14.028
-31.9682
-41.1654
-44.662
-44.5885
-42.3083
-38.7778
-34.6508
-30.3804
-26.2476
-22.417
-18.9686
-15.9293
-13.2922
-11.0317
-9.11223
-7.49474
-6.14005
-5.01117
-4.07436
-3.29961
-2.66072
-2.13515
-1.70365
-1.34997
-1.06048
-0.823795
-0.630455
-0.472642
-0.343904
-0.238934
-0.153366
-0.0836339
-0.0268112
0.0194862
0.0572157
0.0879545
0.113008
0.133426
0.150073
0.163644
0.174715
0.183741
0.191109
0.197118
0.202027
0.20603
0.209303
0.21197
0.214152
0.21593
0.217388
0.218577
0.219556
0.220358
0.221022
0.221567
0.222019
0.22239
0.2227
0.222951
0.22316
0.223326
0.223462
0.223564
0.223642
0.22369
0.223714
0.223708
0.223673
0.223596
0.223473
0.223285
0.223015
0.222632
0.222107
0.221384
0.220408
0.219094
0.217339
0.215005
0.211922
0.207871
0.202584
0.195725
0.186904
0.175667
0.161519
0.143958
0.122546
0.0969787
0.067176
0.0332816
-0.00470894
-0.0477432
-0.100292
-0.171234
-0.27622
-0.39434
-0.390529
-16.1553
-36.5568
-46.9264
-50.8605
-50.7606
-48.1536
-44.1255
-39.4209
-34.5563
-29.851
-25.4915
-21.5679
-18.1104
-15.1108
-12.5397
-10.3566
-8.51707
-6.97646
-5.69269
-4.62738
-3.74639
-3.01994
-2.42235
-1.93176
-1.52968
-1.20058
-0.931545
-0.711795
-0.532443
-0.386149
-0.266878
-0.169663
-0.0904501
-0.0259109
0.0266656
0.0695037
0.104399
0.132835
0.156005
0.174891
0.190283
0.202836
0.21307
0.221419
0.228228
0.233787
0.238321
0.242024
0.245043
0.247509
0.24952
0.251166
0.252509
0.253612
0.254516
0.255263
0.255875
0.256382
0.256797
0.257142
0.257422
0.257654
0.257838
0.257988
0.2581
0.258183
0.258235
0.258258
0.258247
0.258204
0.258113
0.257969
0.257752
0.257441
0.257002
0.2564
0.255575
0.254463
0.252966
0.250969
0.248313
0.244808
0.240201
0.234188
0.226387
0.216352
0.203565
0.187461
0.167468
0.143083
0.113972
0.080078
0.041669
-0.000995719
-0.0484447
-0.10474
-0.178698
-0.28738
-0.411556
-0.414507
-18.2676
-40.9845
-52.4307
-56.7693
-56.6414
-53.7193
-49.2133
-43.9556
-38.5235
-33.2725
-28.4094
-24.0339
-20.1789
-16.8349
-13.9688
-11.5354
-9.48503
-7.7679
-6.33709
-5.14981
-4.168
-3.35845
-2.69255
-2.1459
-1.69791
-1.33127
-1.03156
-0.786786
-0.58703
-0.42411
-0.2913
-0.183066
-0.0948855
-0.0230514
0.0354584
0.0831208
0.12194
0.153566
0.17933
0.200324
0.217432
0.231379
0.242747
0.252019
0.259578
0.265747
0.270777
0.274884
0.27823
0.280963
0.283189
0.285011
0.286497
0.287716
0.288714
0.289537
0.290212
0.290769
0.291225
0.291603
0.291909
0.292162
0.292362
0.292524
0.292645
0.292734
0.292788
0.29281
0.292796
0.292744
0.29264
0.292477
0.292231
0.291881
0.291389
0.290715
0.289793
0.288551
0.286881
0.284654
0.281695
0.277788
0.272655
0.265954
0.257259
0.246072
0.231812
0.213848
0.191537
0.164317
0.131825
0.0940386
0.0513793
0.00445175
-0.0466659
-0.105234
-0.179441
-0.287202
-0.412458
-0.423961
-20.3602
-45.2151
-57.6373
-62.3502
-62.1949
-58.9713
-54.0099
-48.2267
-42.2571
-36.4905
-31.1525
-26.3512
-22.1219
-18.4537
-15.31
-12.6411
-10.3924
-8.50922
-6.94014
-5.63818
-4.56159
-3.67394
-2.94383
-2.34452
-1.85341
-1.45151
-1.12301
-0.854744
-0.635845
-0.457335
-0.311834
-0.193276
-0.0966976
-0.0180357
0.0460242
0.0981967
0.140681
0.175286
0.20347
0.22643
0.245136
0.260381
0.272803
0.282932
0.291188
0.297922
0.303412
0.307892
0.311541
0.31452
0.316945
0.318928
0.320545
0.321872
0.322955
0.323848
0.32458
0.325183
0.325676
0.326083
0.326413
0.326685
0.3269
0.327072
0.327201
0.327294
0.327351
0.327372
0.327353
0.327294
0.327177
0.326996
0.326724
0.326337
0.325795
0.325053
0.32404
0.322677
0.320845
0.318403
0.315159
0.310876
0.305248
0.297901
0.288367
0.276096
0.260449
0.24073
0.21623
0.18633
0.150639
0.109178
0.0625473
0.0117701
-0.04229
-0.101698
-0.173416
-0.275533
-0.396464
-0.417669
-22.4252
-49.2057
-62.5041
-67.5654
-67.3864
-63.8771
-58.4852
-52.2074
-45.7337
-39.4849
-33.7034
-28.505
-23.9269
-19.9567
-16.5546
-13.6665
-11.2332
-9.19559
-7.49786
-6.08923
-4.92449
-3.96422
-3.17443
-2.52618
-1.99499
-1.56034
-1.20511
-0.915041
-0.67838
-0.485412
-0.328147
-0.200023
-0.0956685
-0.010688
0.0585051
0.114846
0.160716
0.198069
0.228485
0.253258
0.273434
0.289872
0.303264
0.31418
0.323074
0.330327
0.336237
0.341058
0.344984
0.348186
0.350793
0.352923
0.354659
0.356081
0.357243
0.358199
0.358981
0.359625
0.360151
0.360585
0.360936
0.361224
0.361452
0.361633
0.361768
0.361866
0.361924
0.361945
0.361922
0.361856
0.361727
0.361528
0.361231
0.360811
0.360222
0.359418
0.358321
0.356844
0.354862
0.35222
0.348712
0.34408
0.337994
0.330048
0.319733
0.306454
0.289514
0.268158
0.241612
0.209202
0.170513
0.125613
0.0752984
0.0210742
-0.0352542
-0.0941845
-0.160838
-0.25268
-0.363623
-0.394755
-24.4484
-52.9052
-66.9885
-72.3792
-72.1827
-68.4053
-62.6106
-55.872
-48.931
-42.2363
-36.0457
-30.4816
-25.5824
-21.3345
-17.6947