/*--------------------------------*- C++ -*----------------------------------*\
  =========                 |
  \\      /  F ield         | OpenFOAM: The Open Source CFD Toolbox
   \\    /   O peration     | Website:  https://openfoam.org
    \\  /    A nd           | Version:  7
     \\/     M anipulation  |
\*---------------------------------------------------------------------------*/
FoamFile
{
    version     2.0;
    format      ascii;
    class       surfaceScalarField;
    location    "3";
    object      phi;
}
// * * * * * * * * * * * * * * * * * * * * * * * * * * * * * * * * * * * * * //

dimensions      [0 3 -1 0 0 0 0];

internalField   nonuniform List<scalar> 
7860
(
0.00283432
0.00216568
0.00262119
0.000213132
0.00260883
1.23563e-05
0.00260634
2.49776e-06
0.00260906
-2.7208e-06
0.00260779
1.2669e-06
0.0026067
1.09662e-06
0.00260513
1.56546e-06
0.00260391
1.21782e-06
0.00260283
1.08131e-06
0.00260197
8.6188e-07
0.00260125
7.21199e-07
0.00260066
5.91989e-07
0.00260016
4.94993e-07
0.00259975
4.12231e-07
0.0025994
3.47436e-07
0.00259911
2.93089e-07
0.00259886
2.49336e-07
0.00259865
2.14144e-07
0.00259847
1.8225e-07
0.00259831
1.55673e-07
0.00259818
1.34082e-07
0.00259806
1.1471e-07
0.00259797
9.83862e-08
0.00259788
8.60698e-08
0.00259781
7.34514e-08
0.00259775
6.13762e-08
0.00259769
5.18897e-08
0.00259765
4.55944e-08
0.00259761
3.88799e-08
0.00259758
3.32794e-08
0.00259755
2.80572e-08
0.00259753
2.33013e-08
0.00259751
1.886e-08
0.00259749
1.71728e-08
0.00259747
1.52267e-08
0.00259746
1.24245e-08
0.00259745
9.481e-09
0.00259744
7.99486e-09
0.00259744
6.72808e-09
0.00259743
6.54834e-09
0.00259743
5.71305e-09
0.00259742
4.67787e-09
0.00259742
2.94248e-09
0.00259741
2.57283e-09
0.00259741
2.36829e-09
0.00259741
2.9691e-09
0.00259741
2.21756e-09
0.00259741
1.23469e-09
0.00259741
5.07066e-10
0.0025974
1.17982e-09
0.0025974
1.21333e-09
0.0025974
9.24468e-10
0.0025974
-2.37204e-10
0.0025974
1.25584e-10
0.0025974
2.62685e-10
0.0025974
8.4327e-10
0.0025974
2.92462e-10
0.0025974
-1.87479e-10
0.0025974
-3.8792e-10
0.0025974
3.53556e-10
0.0025974
1.48725e-10
0.0025974
4.8473e-10
0.0025974
-8.35524e-12
0.0025974
-8.49595e-11
0.0025974
-5.90612e-11
0.0025974
4.83475e-10
0.0025974
1.70319e-10
0.0025974
3.38228e-10
0.0025974
-7.81227e-11
0.0025974
6.89571e-11
0.0025974
-9.78808e-12
0.0025974
3.97127e-10
0.0025974
1.7817e-10
0.0025974
1.77528e-10
0.0025974
-5.80978e-11
0.0025974
2.85526e-10
0.0025974
8.80809e-11
0.0025974
3.0128e-10
0.0025974
2.44323e-10
0.0025974
5.3377e-10
0.0025974
6.14247e-10
0.00259739
1.3076e-09
0.00259739
1.73918e-09
0.00259739
2.43902e-09
0.00259739
3.36543e-09
0.00259738
5.1462e-09
0.00259737
7.17084e-09
0.00259736
1.02593e-08
0.00259735
1.42836e-08
0.00259733
1.97205e-08
0.0025973
2.60947e-08
0.00259727
3.36971e-08
0.00259723
3.77852e-08
0.0025972
3.37206e-08
0.00259718
2.26837e-08
0.00259708
1.0145e-07
0.00259638
6.95913e-07
0.00259378
2.60238e-06
-1.19028e-06
0.00456761
0.00259807
0.00437532
0.000405422
0.00434651
4.11639e-05
0.00434275
6.25448e-06
0.00434577
-5.73408e-06
0.00434424
2.79024e-06
0.00434262
2.71738e-06
0.00434042
3.76307e-06
0.00433864
2.99916e-06
0.00433707
2.64914e-06
0.00433581
2.12741e-06
0.00433475
1.77947e-06
0.00433388
1.46161e-06
0.00433316
1.22268e-06
0.00433255
1.01964e-06
0.00433204
8.58897e-07
0.00433161
7.27166e-07
0.00433124
6.187e-07
0.00433092
5.29151e-07
0.00433065
4.52555e-07
0.00433042
3.88619e-07
0.00433022
3.35593e-07
0.00433005
2.8931e-07
0.0043299
2.48515e-07
0.00432977
2.14748e-07
0.00432966
1.83453e-07
0.00432956
1.57193e-07
0.00432948
1.35217e-07
0.00432941
1.16901e-07
0.00432935
9.90245e-08
0.0043293
8.46661e-08
0.00432925
7.23612e-08
0.00432921
6.20059e-08
0.00432918
5.20972e-08
0.00432915
4.53062e-08
0.00432913
3.8003e-08
0.00432911
3.18153e-08
0.00432909
2.68387e-08
0.00432908
2.34594e-08
0.00432907
1.93434e-08
0.00432906
1.67902e-08
0.00432905
1.3914e-08
0.00432904
1.21142e-08
0.00432903
9.64626e-09
0.00432903
8.83304e-09
0.00432902
6.86733e-09
0.00432902
6.17984e-09
0.00432902
5.12388e-09
0.00432901
4.36561e-09
0.00432901
2.67049e-09
0.00432901
2.64334e-09
0.00432901
2.13509e-09
0.00432901
2.03767e-09
0.004329
6.45725e-10
0.004329
1.14146e-09
0.004329
5.82056e-10
0.004329
7.71418e-10
0.004329
2.43196e-10
0.004329
3.01962e-10
0.004329
-5.95894e-11
0.004329
8.6404e-10
0.004329
3.55974e-10
0.004329
7.91709e-10
0.004329
4.35127e-10
0.004329
7.50062e-10
0.004329
4.63043e-10
0.004329
9.96064e-10
0.004329
4.23797e-10
0.004329
7.8423e-10
0.004329
3.33195e-10
0.004329
6.66849e-10
0.004329
3.37446e-10
0.004329
7.42153e-10
0.004329
2.9577e-10
0.004329
4.20059e-10
0.004329
8.77099e-12
0.004329
5.43168e-10
0.004329
2.89768e-10
0.004329
6.6771e-10
0.004329
7.39523e-10
0.00432899
1.55749e-09
0.00432899
1.92903e-09
0.00432899
3.21772e-09
0.00432899
4.3894e-09
0.00432899
6.4191e-09
0.00432898
8.90774e-09
0.00432897
1.30193e-08
0.00432896
1.81848e-08
0.00432895
2.57013e-08
0.00432893
3.56476e-08
0.0043289
4.95523e-08
0.00432886
6.62184e-08
0.0043288
8.62031e-08
0.00432874
1.00121e-07
0.00432867
1.05058e-07
0.00432858
1.11422e-07
0.00432826
4.17487e-07
0.00432693
2.02842e-06
0.00432235
7.18226e-06
7.90986e-06
0.00507199
0.00252608
0.00495541
0.000522
0.00492273
7.38439e-05
0.00492048
8.51089e-06
0.00492231
-7.56804e-06
0.00492117
3.93735e-06
0.0049195
4.38154e-06
0.00491744
5.82598e-06
0.00491569
4.74767e-06
0.00491417
4.16757e-06
0.00491293
3.36554e-06
0.0049119
2.81097e-06
0.00491105
2.31188e-06
0.00491034
1.93112e-06
0.00490975
1.61305e-06
0.00490925
1.3585e-06
0.00490883
1.15005e-06
0.00490847
9.79483e-07
0.00490816
8.39234e-07
0.00490789
7.19765e-07
0.00490766
6.19386e-07
0.00490746
5.35035e-07
0.00490729
4.62316e-07
0.00490714
3.98042e-07
0.00490701
3.44858e-07
0.0049069
2.96099e-07
0.0049068
2.54839e-07
0.00490672
2.19408e-07
0.00490665
1.89717e-07
0.00490658
1.61907e-07
0.00490653
1.39316e-07
0.00490648
1.19454e-07
0.00490644
1.02841e-07
0.00490641
8.65988e-08
0.00490638
7.50669e-08
0.00490635
6.3541e-08
0.00490633
5.39317e-08
0.00490631
4.53286e-08
0.00490629
3.95367e-08
0.00490628
3.28421e-08
0.00490627
2.83847e-08
0.00490626
2.34028e-08
0.00490625
2.07727e-08
0.00490624
1.67616e-08
0.00490623
1.52631e-08
0.00490623
1.21256e-08
0.00490622
1.04936e-08
0.00490622
8.44166e-09
0.00490622
7.84955e-09
0.00490621
5.26042e-09
0.00490621
4.6546e-09
0.00490621
3.38072e-09
0.00490621
3.53086e-09
0.00490621
1.4655e-09
0.00490621
1.89008e-09
0.0049062
8.90232e-10
0.0049062
1.10554e-09
0.0049062
3.24897e-10
0.0049062
9.36326e-10
0.0049062
9.99709e-11
0.0049062
1.11085e-09
0.0049062
4.40627e-10
0.0049062
1.23128e-09
0.0049062
6.58345e-10
0.0049062
1.26621e-09
0.0049062
5.77332e-10
0.0049062
1.31846e-09
0.0049062
5.42296e-10
0.0049062
1.26982e-09
0.0049062
6.04423e-10
0.0049062
1.04403e-09
0.0049062
4.03684e-10
0.0049062
1.05704e-09
0.0049062
4.01564e-10
0.0049062
7.70783e-10
0.0049062
5.9566e-11
0.0049062
7.64497e-10
0.0049062
4.47442e-10
0.0049062
1.1474e-09
0.0049062
1.20526e-09
0.0049062
2.49761e-09
0.00490619
3.12168e-09
0.00490619
5.11913e-09
0.00490619
6.97036e-09
0.00490619
1.03773e-08
0.00490618
1.4324e-08
0.00490617
2.06642e-08
0.00490616
2.898e-08
0.00490615
4.12355e-08
0.00490612
5.71739e-08
0.00490609
7.961e-08
0.00490605
1.0701e-07
0.004906
1.41338e-07
0.00490593
1.70085e-07
0.00490583
2.01261e-07
0.00490569
2.57146e-07
0.00490521
8.91839e-07
0.00490359
3.64841e-06
0.00489775
1.30252e-05
2.27387e-05
0.00520988
0.00231619
0.00513955
0.000592328
0.00511247
0.000100926
0.00511133
9.64742e-06
0.00511242
-8.65225e-06
0.00511159
4.76823e-06
0.00511013
5.84359e-06
0.00510839
7.56149e-06
0.00510688
6.2567e-06
0.00510558
5.47087e-06
0.00510451
4.43583e-06
0.00510362
3.70024e-06
0.00510288
3.04636e-06
0.00510227
2.54355e-06
0.00510176
2.12453e-06
0.00510133
1.79017e-06
0.00510096
1.5162e-06
0.00510065
1.2926e-06
0.00510038
1.10927e-06
0.00510014
9.53143e-07
0.00509994
8.21832e-07
0.00509977
7.10661e-07
0.00509961
6.15333e-07
0.00509948
5.31158e-07
0.00509937
4.61479e-07
0.00509926
3.97662e-07
0.00509918
3.433e-07
0.0050991
2.96222e-07
0.00509903
2.56667e-07
0.00509897
2.20269e-07
0.00509892
1.90368e-07
0.00509888
1.63495e-07
0.00509884
1.41366e-07
0.00509881
1.19511e-07
0.00509878
1.03633e-07
0.00509875
8.83693e-08
0.00509873
7.57082e-08
0.00509871
6.34152e-08
0.0050987
5.51719e-08
0.00509868
4.62636e-08
0.00509867
4.03903e-08
0.00509866
3.33649e-08
0.00509865
2.96719e-08
0.00509864
2.39435e-08
0.00509864
2.16295e-08
0.00509863
1.76416e-08
0.00509863
1.54461e-08
0.00509862
1.21205e-08
0.00509862
1.12554e-08
0.00509862
7.90329e-09
0.00509861
6.96927e-09
0.00509861
4.85906e-09
0.00509861
5.10018e-09
0.00509861
2.27253e-09
0.00509861
2.5838e-09
0.00509861
1.29372e-09
0.00509861
1.76737e-09
0.00509861
5.53731e-10
0.0050986
1.46798e-09
0.0050986
2.53773e-10
0.0050986
1.51138e-09
0.0050986
7.0198e-10
0.0050986
1.85386e-09
0.0050986
9.34712e-10
0.0050986
1.79502e-09
0.0050986
8.48456e-10
0.0050986
1.92303e-09
0.0050986
8.58346e-10
0.0050986
1.8219e-09
0.0050986
9.1329e-10
0.0050986
1.54124e-09
0.0050986
5.97202e-10
0.0050986
1.49365e-09
0.0050986
5.92453e-10
0.0050986
1.16828e-09
0.0050986
1.76152e-10
0.0050986
1.06067e-09
0.0050986
6.38933e-10
0.0050986
1.66605e-09
0.0050986
1.64115e-09
0.0050986
3.34594e-09
0.0050986
4.21827e-09
0.00509859
6.9229e-09
0.00509859
9.33799e-09
0.00509859
1.39147e-08
0.00509858
1.9188e-08
0.00509858
2.76231e-08
0.00509857
3.86769e-08
0.00509855
5.51665e-08
0.00509853
7.64803e-08
0.00509851
1.06588e-07
0.00509847
1.44073e-07
0.00509842
1.93451e-07
0.00509835
2.41023e-07
0.00509824
3.12493e-07
0.00509805
4.42124e-07
0.00509748
1.45959e-06
0.00509583
5.30165e-06
0.00508957
1.92893e-05
3.78146e-05
0.00523327
0.00208292
0.00519416
0.00063144
0.0051735
0.000121585
0.00517317
9.97449e-06
0.00517379
-9.26943e-06
0.00517326
5.29428e-06
0.00517208
7.02656e-06
0.00517071
8.92815e-06
0.0051695
7.46775e-06
0.00516845
6.51549e-06
0.00516759
5.29903e-06
0.00516687
4.41739e-06
0.00516628
3.63919e-06
0.00516579
3.0354e-06
0.00516537
2.53755e-06
0.00516502
2.13964e-06
0.00516473
1.8138e-06
0.00516447
1.5479e-06
0.00516425
1.3296e-06
0.00516406
1.14438e-06
0.00516389
9.88707e-07
0.00516375
8.56217e-07
0.00516362
7.428e-07
0.00516351
6.42716e-07
0.00516341
5.59541e-07
0.00516333
4.837e-07
0.00516325
4.1867e-07
0.00516318
3.62437e-07
0.00516313
3.14645e-07
0.00516307
2.7105e-07
0.00516303
2.34927e-07
0.00516299
2.02199e-07
0.00516296
1.75608e-07
0.00516293
1.49434e-07
0.0051629
1.29444e-07
0.00516288
1.10738e-07
0.00516286
9.5519e-08
0.00516284
8.0539e-08
0.00516283
6.99812e-08
0.00516281
5.90697e-08
0.0051628
5.18201e-08
0.00516279
4.30324e-08
0.00516278
3.81639e-08
0.00516278
3.11987e-08
0.00516277
2.78564e-08
0.00516277
2.30911e-08
0.00516276
2.03514e-08
0.00516276
1.59308e-08
0.00516275
1.44451e-08
0.00516275
1.06249e-08
0.00516275
9.30143e-09
0.00516275
6.3877e-09
0.00516274
6.5447e-09
0.00516274
3.32805e-09
0.00516274
3.29442e-09
0.00516274
1.70172e-09
0.00516274
2.34962e-09
0.00516274
9.1773e-10
0.00516274
1.89793e-09
0.00516274
5.7334e-10
0.00516274
1.98362e-09
0.00516274
1.08606e-09
0.00516274
2.4781e-09
0.00516274
1.45661e-09
0.00516274
2.41866e-09
0.00516274
1.34645e-09
0.00516274
2.60291e-09
0.00516273
1.37504e-09
0.00516273
2.36511e-09
0.00516273
1.33108e-09
0.00516273
2.09977e-09
0.00516273
9.49695e-10
0.00516273
1.86245e-09
0.00516273
8.0175e-10
0.00516273
1.45518e-09
0.00516273
3.30715e-10
0.00516273
1.25254e-09
0.00516273
7.41783e-10
0.00516273
2.01543e-09
0.00516273
2.02872e-09
0.00516273
4.00045e-09
0.00516273
5.14575e-09
0.00516273
8.41162e-09
0.00516273
1.14112e-08
0.00516272
1.69494e-08
0.00516272
2.34361e-08
0.00516271
3.36178e-08
0.00516271
4.68965e-08
0.00516269
6.68396e-08
0.00516268
9.28004e-08
0.00516266
1.2944e-07
0.00516262
1.7595e-07
0.00516258
2.40203e-07
0.00516251
3.09329e-07
0.00516239
4.30556e-07
0.00516218
6.49295e-07
0.0051616
2.04381e-06
0.00516003
6.86852e-06
0.00515415
2.51734e-05
5.09458e-05
0.00522258
0.00186035
0.00520653
0.000647488
0.0051918
0.00013631
0.00519202
9.75724e-06
0.00519236
-9.60558e-06
0.0051921
5.55199e-06
0.00519121
7.91187e-06
0.00519022
9.92459e-06
0.00518931
8.37483e-06
0.00518853
7.29639e-06
0.00518788
5.95003e-06
0.00518733
4.95874e-06
0.00518689
4.08724e-06
0.00518651
3.40816e-06
0.0051862
2.85101e-06
0.00518593
2.40567e-06
0.00518571
2.04123e-06
0.00518551
1.7439e-06
0.00518534
1.49903e-06
0.00518519
1.29215e-06
0.00518506
1.11857e-06
0.00518495
9.70219e-07
0.00518485
8.43086e-07
0.00518476
7.31178e-07
0.00518468
6.37589e-07
0.00518461
5.52756e-07
0.00518455
4.79543e-07
0.0051845
4.1621e-07
0.00518445
3.61979e-07
0.00518441
3.12871e-07
0.00518437
2.71866e-07
0.00518434
2.34636e-07
0.00518431
2.04353e-07
0.00518428
1.74957e-07
0.00518426
1.51429e-07
0.00518424
1.29856e-07
0.00518423
1.12497e-07
0.00518421
9.57075e-08
0.0051842
8.31875e-08
0.00518419
7.04452e-08
0.00518418
6.18063e-08
0.00518417
5.17262e-08
0.00518416
4.57128e-08
0.00518415
3.79462e-08
0.00518415
3.35954e-08
0.00518414
2.80542e-08
0.00518414
2.4682e-08
0.00518413
1.95675e-08
0.00518413
1.73465e-08
0.00518413
1.31924e-08
0.00518413
1.14354e-08
0.00518412
7.88142e-09
0.00518412
7.73472e-09
0.00518412
4.45547e-09
0.00518412
4.02684e-09
0.00518412
2.11987e-09
0.00518412
2.73225e-09
0.00518412
1.33325e-09
0.00518412
2.24705e-09
0.00518412
9.4415e-10
0.00518412
2.37979e-09
0.00518412
1.48339e-09
0.00518412
2.95484e-09
0.00518412
2.03078e-09
0.00518411
2.98889e-09
0.00518411
1.87721e-09
0.00518411
3.13756e-09
0.00518411
1.91144e-09
0.00518411
2.82416e-09
0.00518411
1.77325e-09
0.00518411
2.58316e-09
0.00518411
1.34964e-09
0.00518411
2.12983e-09
0.00518411
1.00342e-09
0.00518411
1.61362e-09
0.00518411
4.68943e-10
0.00518411
1.32028e-09
0.00518411
7.54788e-10
0.00518411
2.15349e-09
0.00518411
2.29845e-09
0.00518411
4.41284e-09
0.00518411
5.83899e-09
0.00518411
9.49285e-09
0.00518411
1.30484e-08
0.0051841
1.93441e-08
0.0051841
2.68722e-08
0.0051841
3.8447e-08
0.00518409
5.34623e-08
0.00518408
7.60455e-08
0.00518407
1.05807e-07
0.00518405
1.47841e-07
0.00518402
2.02188e-07
0.00518398
2.80535e-07
0.00518392
3.71749e-07
0.0051838
5.47611e-07
0.00518359
8.59949e-07
0.00518302
2.61442e-06
0.00518164
8.24774e-06
0.0051766
3.02186e-05
6.15789e-05
0.00520393
0.00165641
0.00520546
0.000645964
0.00519606
0.000145707
0.00519663
9.18583e-06
0.00519679
-9.75952e-06
0.00519676
5.57882e-06
0.00519616
8.50576e-06
0.00519552
1.05724e-05
0.0051949
8.98919e-06
0.00519437
7.82471e-06
0.00519393
6.39589e-06
0.00519356
5.33049e-06
0.00519325
4.39617e-06
0.00519299
3.66606e-06
0.00519277
3.06868e-06
0.00519258
2.5911e-06
0.00519242
2.20043e-06
0.00519229
1.88195e-06
0.00519217
1.61895e-06
0.00519206
1.39739e-06
0.00519197
1.21188e-06
0.00519188
1.05279e-06
0.00519181
9.16161e-07
0.00519175
7.9631e-07
0.00519169
6.95423e-07
0.00519164
6.04385e-07
0.00519159
5.25477e-07
0.00519155
4.56944e-07
0.00519151
3.98153e-07
0.00519148
3.45152e-07
0.00519145
3.00642e-07
0.00519143
2.60129e-07
0.0051914
2.2685e-07
0.00519138
1.95131e-07
0.00519136
1.68976e-07
0.00519135
1.45255e-07
0.00519133
1.26194e-07
0.00519132
1.08078e-07
0.00519131
9.4057e-08
0.0051913
7.9792e-08
0.00519129
6.99311e-08
0.00519129
5.90186e-08
0.00519128
5.20148e-08
0.00519127
4.36676e-08
0.00519127
3.84286e-08
0.00519126
3.22668e-08
0.00519126
2.83149e-08
0.00519126
2.27537e-08
0.00519125
1.98852e-08
0.00519125
1.53975e-08
0.00519125
1.32722e-08
0.00519125
9.2517e-09
0.00519125
8.69012e-09
0.00519125
5.45795e-09
0.00519125
4.72554e-09
0.00519124
2.51534e-09
0.00519124
2.94204e-09
0.00519124
1.67131e-09
0.00519124
2.51554e-09
0.00519124
1.24612e-09
0.00519124
2.64289e-09
0.00519124
1.79059e-09
0.00519124
3.27175e-09
0.00519124
2.49899e-09
0.00519124
3.42413e-09
0.00519124
2.29399e-09
0.00519124
3.47873e-09
0.00519124
2.34436e-09
0.00519124
3.18421e-09
0.00519124
2.1486e-09
0.00519124
2.94993e-09
0.00519124
1.70879e-09
0.00519124
2.35196e-09
0.00519124
1.21304e-09
0.00519124
1.73574e-09
0.00519124
6.05766e-10
0.00519124
1.35932e-09
0.00519124
7.47321e-10
0.00519124
2.1851e-09
0.00519124
2.46324e-09
0.00519124
4.64451e-09
0.00519124
6.29217e-09
0.00519124
1.01933e-08
0.00519123
1.41878e-08
0.00519123
2.10428e-08
0.00519123
2.9339e-08
0.00519123
4.19685e-08
0.00519122
5.8323e-08
0.00519122
8.28141e-08
0.00519121
1.15459e-07
0.00519119
1.6174e-07
0.00519117
2.22617e-07
0.00519114
3.13636e-07
0.00519108
4.26573e-07
0.00519097
6.57078e-07
0.00519077
1.06039e-06
0.00519026
3.13231e-06
0.00518912
9.38099e-06
0.00518513
3.42149e-05
6.96162e-05
0.00518536
0.00147105
0.00520052
0.000630801
0.00519584
0.000150389
0.00519662
8.40417e-06
0.00519664
-9.77652e-06
0.0051968
5.41702e-06
0.00519648
8.82574e-06
0.00519615
1.09004e-05
0.00519581
9.32951e-06
0.00519552
8.11707e-06
0.00519527
6.64874e-06
0.00519505
5.54248e-06
0.00519488
4.57409e-06
0.00519473
3.81532e-06
0.0051946
3.19567e-06
0.00519449
2.70006e-06
0.00519439
2.29482e-06
0.00519431
1.96463e-06
0.00519424
1.69165e-06
0.00519417
1.46189e-06
0.00519412
1.26984e-06
0.00519406
1.10481e-06
0.00519402
9.62733e-07
0.00519397
8.38407e-07
0.00519394
7.3334e-07
0.0051939
6.38586e-07
0.00519387
5.56309e-07
0.00519384
4.84503e-07
0.00519382
4.23025e-07
0.0051938
3.67663e-07
0.00519377
3.2096e-07
0.00519376
2.78242e-07
0.00519374
2.42806e-07
0.00519373
2.09577e-07
0.00519371
1.81845e-07
0.0051937
1.56627e-07
0.00519369
1.36373e-07
0.00519368
1.17177e-07
0.00519367
1.02207e-07
0.00519367
8.68634e-08
0.00519366
7.61329e-08
0.00519365
6.46419e-08
0.00519365
5.69193e-08
0.00519364
4.80265e-08
0.00519364
4.22105e-08
0.00519364
3.55795e-08
0.00519363
3.12337e-08
0.00519363
2.5263e-08
0.00519363
2.19823e-08
0.00519363
1.71334e-08
0.00519362
1.47683e-08
0.00519362
1.03964e-08
0.00519362
9.44684e-09
0.00519362
6.18259e-09
0.00519362
5.33984e-09
0.00519362
2.85674e-09
0.00519362
3.06514e-09
0.00519362
1.82858e-09
0.00519362
2.71097e-09
0.00519362
1.44796e-09
0.00519362
2.84324e-09
0.00519362
1.98983e-09
0.00519362
3.50866e-09
0.00519362
2.81802e-09
0.00519362
3.77435e-09
0.00519362
2.61555e-09
0.00519362
3.74975e-09
0.00519362
2.66894e-09
0.00519361
3.49881e-09
0.00519361
2.4351e-09
0.00519361
3.25561e-09
0.00519361
2.00088e-09
0.00519361
2.59151e-09
0.00519361
1.42733e-09
0.00519361
1.89121e-09
0.00519361
7.51584e-10
0.00519361
1.45889e-09
0.00519361
7.76256e-10
0.00519361
2.22154e-09
0.00519361
2.55563e-09
0.00519361
4.79336e-09
0.00519361
6.55552e-09
0.00519361
1.06025e-08
0.00519361
1.4851e-08
0.00519361
2.21353e-08
0.00519361
3.08417e-08
0.00519361
4.42028e-08
0.0051936
6.1469e-08
0.0051936
8.72267e-08
0.00519359
1.21803e-07
0.00519358
1.71164e-07
0.00519357
2.37141e-07
0.00519354
3.38907e-07
0.0051935
4.71689e-07
0.0051934
7.52699e-07
0.00519323
1.23744e-06
0.00519279
3.56622e-06
0.00519194
1.02355e-05
0.00518908
3.70751e-05
7.50847e-05
0.00516893
0.00130212
0.00519487
0.000604858
0.00519434
0.000150927
0.00519522
7.52054e-06
0.00519511
-9.67023e-06
0.00519542
5.11072e-06
0.00519535
8.89488e-06
0.00519531
1.09389e-05
0.00519522
9.41744e-06
0.00519515
8.19195e-06
0.00519507
6.72284e-06
0.00519501
5.60613e-06
0.00519495
4.63009e-06
0.0051949
3.86333e-06
0.00519486
3.23786e-06
0.00519482
2.73734e-06
0.00519479
2.32845e-06
0.00519476
1.99517e-06
0.00519473
1.71969e-06
0.0051947
1.48776e-06
0.00519468
1.29406e-06
0.00519466
1.12752e-06
0.00519464
9.83869e-07
0.00519462
8.58144e-07
0.0051946
7.51759e-07
0.00519458
6.55619e-07
0.00519456
5.72297e-07
0.00519455
4.99068e-07
0.00519454
4.36606e-07
0.00519452
3.80263e-07
0.00519451
3.32635e-07
0.0051945
2.88796e-07
0.00519449
2.52201e-07
0.00519448
2.18246e-07
0.00519447
1.8992e-07
0.00519447
1.63746e-07
0.00519446
1.42876e-07
0.00519445
1.2291e-07
0.00519445
1.07558e-07
0.00519444
9.16001e-08
0.00519444
8.04152e-08
0.00519443
6.84903e-08
0.00519443
6.03299e-08
0.00519443
5.10506e-08
0.00519442
4.49385e-08
0.00519442
3.78901e-08
0.00519442
3.33919e-08
0.00519442
2.69878e-08
0.00519442
2.3516e-08
0.00519441
1.83588e-08
0.00519441
1.5906e-08
0.00519441
1.12481e-08
0.00519441
1.00182e-08
0.00519441
6.59396e-09
0.00519441
5.79029e-09
0.00519441
3.01311e-09
0.00519441
3.1234e-09
0.00519441
1.79125e-09
0.00519441
2.83175e-09
0.00519441
1.56445e-09
0.00519441
3.04309e-09
0.00519441
2.10021e-09
0.00519441
3.71672e-09
0.00519441
3.0307e-09
0.00519441
4.11129e-09
0.00519441
2.91236e-09
0.00519441
4.06058e-09
0.00519441
2.93421e-09
0.00519441
3.81163e-09
0.00519441
2.65753e-09
0.00519441
3.55278e-09
0.00519441
2.2296e-09
0.00519441
2.84273e-09
0.00519441
1.61415e-09
0.00519441
2.07104e-09
0.00519441
8.8374e-10
0.00519441
1.61146e-09
0.00519441
8.28482e-10
0.00519441
2.2782e-09
0.00519441
2.59309e-09
0.00519441
4.89827e-09
0.00519441
6.66591e-09
0.00519441
1.07759e-08
0.00519441
1.51427e-08
0.0051944
2.25873e-08
0.0051944
3.15566e-08
0.0051944
4.52632e-08
0.0051944
6.29328e-08
0.0051944
8.93373e-08
0.0051944
1.24901e-07
0.00519439
1.76148e-07
0.00519438
2.4566e-07
0.00519437
3.55735e-07
0.00519433
5.0511e-07
0.00519426
8.28926e-07
0.00519411
1.38016e-06
0.00519379
3.89406e-06
0.00519323
1.07926e-05
0.00519153
3.87764e-05
7.80797e-05
0.00515491
0.00114721
0.00518949
0.000570283
0.00519259
0.000147827
0.0051935
6.61054e-06
0.00519327
-9.43803e-06
0.00519368
4.70157e-06
0.00519383
8.73857e-06
0.00519405
1.07178e-05
0.00519419
9.27551e-06
0.00519432
8.06839e-06
0.00519441
6.63311e-06
0.00519448
5.53347e-06
0.00519454
4.57359e-06
0.00519458
3.8178e-06
0.00519462
3.20147e-06
0.00519465
2.70801e-06
0.00519467
2.30548e-06
0.00519469
1.97704e-06
0.0051947
1.7058e-06
0.00519471
1.4773e-06
0.00519472
1.2864e-06
0.00519472
1.12236e-06
0.00519473
9.80695e-07
0.00519473
8.56403e-07
0.00519473
7.5131e-07
0.00519473
6.56027e-07
0.00519473
5.73809e-07
0.00519473
5.00993e-07
0.00519472
4.39024e-07
0.00519472
3.82965e-07
0.00519472
3.35627e-07
0.00519471
2.9181e-07
0.00519471
2.55057e-07
0.00519471
2.21129e-07
0.0051947
1.93036e-07
0.0051947
1.66481e-07
0.0051947
1.45565e-07
0.0051947
1.25326e-07
0.00519469
1.10085e-07
0.00519469
9.39501e-08
0.00519469
8.26948e-08
0.00519469
7.05475e-08
0.00519469
6.21933e-08
0.00519468
5.2673e-08
0.00519468
4.65228e-08
0.00519468
3.91442e-08
0.00519468
3.46944e-08
0.00519468
2.79508e-08
0.00519468
2.44407e-08
0.00519468
1.90665e-08
0.00519468
1.66303e-08
0.00519467
1.17665e-08
0.00519467
1.03435e-08
0.00519467
6.70599e-09
0.00519467
5.98069e-09
0.00519467
3.02717e-09
0.00519467
3.10983e-09
0.00519467
1.61161e-09
0.00519467
2.8471e-09
0.00519467
1.59643e-09
0.00519467
3.21934e-09
0.00519467
2.14329e-09
0.00519467
3.87893e-09
0.00519467
3.18377e-09
0.00519467
4.43582e-09
0.00519467
3.20632e-09
0.00519467
4.41145e-09
0.00519467
3.18044e-09
0.00519467
4.11893e-09
0.00519467
2.84507e-09
0.00519467
3.83551e-09
0.00519467
2.4036e-09
0.00519467
3.05584e-09
0.00519467
1.74593e-09
0.00519467
2.22693e-09
0.00519467
9.40826e-10
0.00519467
1.73734e-09
0.00519467
8.49773e-10
0.00519467
2.30701e-09
0.00519467
2.53426e-09
0.00519467
4.91887e-09
0.00519467
6.62337e-09
0.00519467
1.07515e-08
0.00519467
1.5069e-08
0.00519467
2.25746e-08
0.00519467
3.14596e-08
0.00519467
4.52089e-08
0.00519467
6.28311e-08
0.00519467
8.92229e-08
0.00519467
1.24861e-07
0.00519467
1.76769e-07
0.00519467
2.48106e-07
0.00519466
3.63609e-07
0.00519464
5.25256e-07
0.00519459
8.8135e-07
0.00519449
1.48034e-06
0.00519428
4.10115e-06
0.00519403
1.10434e-05
0.00519347
3.9337e-05
7.87419e-05
0.0051431
0.0010041
0.00518465
0.000528741
0.00519093
0.000141538
0.00519182
5.72219e-06
0.00519146
-9.07141e-06
0.00519193
4.22621e-06
0.00519229
8.38274e-06
0.00519274
1.02661e-05
0.00519309
8.92628e-06
0.00519339
7.76543e-06
0.00519363
6.39447e-06
0.00519383
5.33665e-06
0.00519399
4.41412e-06
0.00519412
3.68641e-06
0.00519423
3.09288e-06
0.00519432
2.61737e-06
0.00519439
2.23018e-06
0.00519445
1.91389e-06
0.00519451
1.6529e-06
0.00519455
1.43292e-06
0.00519459
1.24889e-06
0.00519462
1.09095e-06
0.00519465
9.54452e-07
0.00519467
8.34294e-07
0.00519469
7.32843e-07
0.0051947
6.40597e-07
0.00519472
5.61363e-07
0.00519473
4.9076e-07
0.00519473
4.3059e-07
0.00519474
3.76014e-07
0.00519475
3.30063e-07
0.00519475
2.87422e-07
0.00519475
2.51406e-07
0.00519476
2.18243e-07
0.00519476
1.91057e-07
0.00519476
1.64817e-07
0.00519476
1.44365e-07
0.00519476
1.24463e-07
0.00519476
1.09721e-07
0.00519476
9.38322e-08
0.00519476
8.27845e-08
0.00519476
7.07548e-08
0.00519476
6.23875e-08
0.00519476
5.2872e-08
0.00519476
4.68569e-08
0.00519476
3.92981e-08
0.00519476
3.50225e-08
0.00519476
2.81831e-08
0.00519476
2.47054e-08
0.00519476
1.9265e-08
0.00519476
1.68826e-08
0.00519476
1.19362e-08
0.00519476
1.03233e-08
0.00519476
6.51076e-09
0.00519476
5.90249e-09
0.00519476
2.89342e-09
0.00519476
2.98624e-09
0.00519476
1.36035e-09
0.00519476
2.7167e-09
0.00519476
1.53687e-09
0.00519476
3.29718e-09
0.00519476
2.15026e-09
0.00519476
3.94458e-09
0.00519476
3.30152e-09
0.00519476
4.69257e-09
0.00519476
3.48352e-09
0.00519476
4.73378e-09
0.00519476
3.43602e-09
0.00519476
4.39424e-09
0.00519476
3.03529e-09
0.00519476
4.07341e-09
0.00519476
2.56187e-09
0.00519476
3.19173e-09
0.00519476
1.83756e-09
0.00519476
2.29086e-09
0.00519476
9.4177e-10
0.00519476
1.75043e-09
0.00519476
8.16653e-10
0.00519476
2.2382e-09
0.00519476
2.36948e-09
0.00519476
4.80916e-09
0.00519476
6.48083e-09
0.00519476
1.04777e-08
0.00519476
1.46493e-08
0.00519476
2.20497e-08
0.00519476
3.06257e-08
0.00519476
4.40901e-08
0.00519476
6.12756e-08
0.00519477
8.69931e-08
0.00519477
1.21838e-07
0.00519477
1.73163e-07
0.00519478
2.445e-07
0.00519478
3.62211e-07
0.00519477
5.31016e-07
0.00519475
9.06836e-07
0.00519469
1.5324e-06
0.00519462
4.17907e-06
0.00519467
1.09879e-05
0.0051952
3.88041e-05
7.72396e-05
0.00513321
0.00087089
0.00518039
0.000481562
0.00518947
0.000132463
0.0051903
4.88237e-06
0.0051898
-8.56223e-06
0.00519031
3.71509e-06
0.00519084
7.85286e-06
0.00519149
9.61173e-06
0.00519202
8.39203e-06
0.00519249
7.30192e-06
0.00519286
6.02175e-06
0.00519317
5.02782e-06
0.00519342
4.16144e-06
0.00519363
3.47699e-06
0.00519381
2.91859e-06
0.00519395
2.47097e-06
0.00519408
2.10696e-06
0.00519418
1.80945e-06
0.00519427
1.56411e-06
0.00519435
1.3572e-06
0.00519441
1.18377e-06
0.00519447
1.03513e-06
0.00519452
9.06613e-07
0.00519456
7.93159e-07
0.00519459
6.97459e-07
0.00519462
6.1032e-07
0.00519465
5.35692e-07
0.00519467
4.68994e-07
0.00519469
4.1184e-07
0.00519471
3.59893e-07
0.00519472
3.16272e-07
0.00519473
2.75882e-07
0.00519474
2.4141e-07
0.00519475
2.09733e-07
0.00519476
1.84012e-07
0.00519476
1.58872e-07
0.00519477
1.39336e-07
0.00519477
1.2036e-07
0.00519477
1.06427e-07
0.00519478
9.12052e-08
0.00519478
8.05569e-08
0.00519478
6.90522e-08
0.00519478
6.08505e-08
0.00519478
5.16502e-08
0.00519478
4.5879e-08
0.00519478
3.83822e-08
0.00519479
3.43067e-08
0.00519479
2.76798e-08
0.00519479
2.42599e-08
0.00519479
1.89316e-08
0.00519479
1.65945e-08
0.00519479
1.17526e-08
0.00519479
9.95933e-09
0.00519479
6.10752e-09
0.00519479
5.50867e-09
0.00519479
2.60806e-09
0.00519479
2.71547e-09
0.00519479
1.07542e-09
0.00519479
2.42834e-09
0.00519479
1.38269e-09
0.00519479
3.22464e-09
0.00519479
2.14875e-09
0.00519479
3.8996e-09
0.00519479
3.39264e-09
0.00519479
4.84638e-09
0.00519479
3.72945e-09
0.00519479
4.97299e-09
0.00519479
3.70996e-09
0.00519479
4.62133e-09
0.00519479
3.24786e-09
0.00519479
4.24741e-09
0.00519479
2.72972e-09
0.00519479
3.24949e-09
0.00519479
1.88115e-09
0.00519479
2.27921e-09
0.00519479
8.88248e-10
0.00519479
1.63904e-09
0.00519479
7.24624e-10
0.00519479
2.06934e-09
0.00519479
2.12793e-09
0.00519479
4.53409e-09
0.00519479
6.18203e-09
0.00519479
9.94288e-09
0.00519479
1.39063e-08
0.00519479
2.10349e-08
0.00519479
2.91225e-08
0.00519479
4.19606e-08
0.0051948
5.8366e-08
0.0051948
8.27905e-08
0.00519481
1.16022e-07
0.00519481
1.65521e-07
0.00519482
2.3498e-07
0.00519484
3.51465e-07
0.00519484
5.21783e-07
0.00519485
9.03543e-07
0.00519485
1.53321e-06
0.0051949
4.12504e-06
0.00519526
1.0634e-05
0.00519681
3.72464e-05
7.37592e-05
0.00512497
0.000745921
0.00517671
0.00042982
0.0051882
0.000120975
0.00518898
4.10303e-06
0.00518832
-7.90613e-06
0.00518884
3.1922e-06
0.00518952
7.17339e-06
0.00519035
8.78093e-06
0.00519105
7.69466e-06
0.00519166
6.69649e-06
0.00519215
5.52982e-06
0.00519256
4.61917e-06
0.00519289
3.82553e-06
0.00519317
3.19763e-06
0.00519341
2.68531e-06
0.0051936
2.27453e-06
0.00519377
1.94055e-06
0.00519391
1.66769e-06
0.00519403
1.44279e-06
0.00519414
1.25294e-06
0.00519423
1.09346e-06
0.00519431
9.56995e-07
0.00519437
8.38935e-07
0.00519443
7.34548e-07
0.00519448
6.46505e-07
0.00519453
5.66351e-07
0.00519457
4.97765e-07
0.0051946
4.36472e-07
0.00519463
3.83504e-07
0.00519465
3.35258e-07
0.00519467
2.94794e-07
0.00519469
2.57583e-07
0.00519471
2.25432e-07
0.00519472
1.95929e-07
0.00519473
1.72159e-07
0.00519474
1.48869e-07
0.00519475
1.30684e-07
0.00519476
1.13119e-07
0.00519477
1.00277e-07
0.00519477
8.61286e-08
0.00519477
7.60537e-08
0.00519478
6.54532e-08
0.00519478
5.76361e-08
0.00519478
4.90403e-08
0.00519479
4.36129e-08
0.00519479
3.64264e-08
0.00519479
3.25688e-08
0.00519479
2.64263e-08
0.00519479
2.31113e-08
0.00519479
1.80487e-08
0.00519479
1.57443e-08
0.00519479
1.11885e-08
0.0051948
9.22871e-09
0.0051948
5.48387e-09
0.0051948
4.81618e-09
0.0051948
2.16768e-09
0.0051948
2.28652e-09
0.0051948
7.57127e-10
0.0051948
2.00853e-09
0.0051948
1.1411e-09
0.0051948
2.9955e-09
0.0051948
2.14852e-09
0.0051948
3.77571e-09
0.0051948
3.46321e-09
0.0051948
4.91239e-09
0.0051948
3.95071e-09
0.0051948
5.13009e-09
0.0051948
4.00266e-09
0.0051948
4.81079e-09
0.0051948
3.48799e-09
0.0051948
4.35678e-09
0.0051948
2.90905e-09
0.0051948
3.24429e-09
0.0051948
1.90958e-09
0.0051948
2.19432e-09
0.0051948
8.14546e-10
0.0051948
1.44195e-09
0.0051948
6.12843e-10
0.0051948
1.83058e-09
0.0051948
1.85291e-09
0.0051948
4.12541e-09
0.0051948
5.74969e-09
0.0051948
9.18906e-09
0.0051948
1.28697e-08
0.0051948
1.95551e-08
0.0051948
2.69956e-08
0.00519481
3.88937e-08
0.00519481
5.41941e-08
0.00519482
7.67811e-08
0.00519483
1.07638e-07
0.00519484
1.54099e-07
0.00519485
2.19807e-07
0.00519487
3.31555e-07
0.0051949
4.97475e-07
0.00519493
8.70902e-07
0.00519498
1.48202e-06
0.00519516