/*--------------------------------*- C++ -*----------------------------------*\
  =========                 |
  \\      /  F ield         | OpenFOAM: The Open Source CFD Toolbox
   \\    /   O peration     | Website:  https://openfoam.org
    \\  /    A nd           | Version:  7
     \\/     M anipulation  |
\*---------------------------------------------------------------------------*/
FoamFile
{
    version     2.0;
    format      ascii;
    class       volVectorField;
    location    "3";
    object      U;
}
// * * * * * * * * * * * * * * * * * * * * * * * * * * * * * * * * * * * * * //

dimensions      [0 1 -1 0 0 0 0];

internalField   nonuniform List<vector> 
4000
(
(0.53756 0.056397 0)
(0.552164 0.00359843 0)
(0.517048 -0.00176414 0)
(0.522868 -0.00200132 0)
(0.521057 -0.00213092 0)
(0.521989 -0.00203771 0)
(0.521383 -0.00204478 0)
(0.521233 -0.00203495 0)
(0.52089 -0.00204441 0)
(0.520682 -0.00204834 0)
(0.520477 -0.0020541 0)
(0.520323 -0.00205785 0)
(0.52019 -0.00206127 0)
(0.520082 -0.00206381 0)
(0.519991 -0.00206589 0)
(0.519916 -0.00206752 0)
(0.519852 -0.00206886 0)
(0.519797 -0.00206989 0)
(0.519751 -0.00207072 0)
(0.519712 -0.00207146 0)
(0.519678 -0.00207202 0)
(0.519649 -0.00207251 0)
(0.519624 -0.00207292 0)
(0.519603 -0.00207324 0)
(0.519584 -0.00207349 0)
(0.519569 -0.00207374 0)
(0.519555 -0.00207398 0)
(0.519544 -0.00207416 0)
(0.519534 -0.00207428 0)
(0.519526 -0.00207441 0)
(0.519519 -0.00207449 0)
(0.519513 -0.00207459 0)
(0.519507 -0.00207469 0)
(0.519503 -0.00207476 0)
(0.519499 -0.00207478 0)
(0.519496 -0.00207482 0)
(0.519494 -0.00207487 0)
(0.519491 -0.00207492 0)
(0.51949 -0.00207495 0)
(0.519488 -0.00207498 0)
(0.519487 -0.00207497 0)
(0.519486 -0.00207498 0)
(0.519485 -0.00207501 0)
(0.519484 -0.00207504 0)
(0.519483 -0.00207504 0)
(0.519483 -0.00207505 0)
(0.519482 -0.00207503 0)
(0.519482 -0.00207504 0)
(0.519482 -0.00207507 0)
(0.519481 -0.00207509 0)
(0.519481 -0.00207506 0)
(0.519481 -0.00207507 0)
(0.519481 -0.00207507 0)
(0.519481 -0.0020751 0)
(0.51948 -0.00207509 0)
(0.51948 -0.00207509 0)
(0.51948 -0.00207507 0)
(0.51948 -0.00207508 0)
(0.51948 -0.00207509 0)
(0.51948 -0.0020751 0)
(0.51948 -0.00207508 0)
(0.51948 -0.00207509 0)
(0.51948 -0.00207508 0)
(0.51948 -0.00207509 0)
(0.51948 -0.00207509 0)
(0.51948 -0.0020751 0)
(0.51948 -0.00207508 0)
(0.51948 -0.00207509 0)
(0.51948 -0.00207508 0)
(0.51948 -0.00207509 0)
(0.51948 -0.00207509 0)
(0.51948 -0.00207509 0)
(0.51948 -0.00207508 0)
(0.51948 -0.00207509 0)
(0.51948 -0.00207509 0)
(0.51948 -0.00207509 0)
(0.51948 -0.00207508 0)
(0.51948 -0.00207509 0)
(0.51948 -0.00207508 0)
(0.51948 -0.00207508 0)
(0.519479 -0.00207508 0)
(0.519479 -0.00207507 0)
(0.519479 -0.00207506 0)
(0.519479 -0.00207505 0)
(0.519478 -0.00207503 0)
(0.519478 -0.00207501 0)
(0.519477 -0.00207497 0)
(0.519476 -0.00207492 0)
(0.519474 -0.00207485 0)
(0.519472 -0.00207476 0)
(0.519468 -0.00207463 0)
(0.519463 -0.0020745 0)
(0.519457 -0.00207436 0)
(0.51945 -0.00207434 0)
(0.519443 -0.00207463 0)
(0.519435 -0.00207528 0)
(0.519441 -0.00207439 0)
(0.519359 -0.0020612 0)
(0.519227 -0.0020212 0)
(0.518637 -0.00215161 0)
(0.864904 0.128456 0)
(0.911539 0.0160072 0)
(0.861932 0.000986875 0)
(0.871315 -7.13621e-05 0)
(0.867931 -0.000505923 0)
(0.869519 -0.000190992 0)
(0.868561 -0.000202194 0)
(0.868393 -0.000164387 0)
(0.867881 -0.00019399 0)
(0.867586 -0.000206851 0)
(0.867283 -0.000226432 0)
(0.867058 -0.000239452 0)
(0.866862 -0.000251574 0)
(0.866704 -0.000260771 0)
(0.86657 -0.000267992 0)
(0.866459 -0.000273705 0)
(0.866364 -0.000278422 0)
(0.866284 -0.000282262 0)
(0.866216 -0.000285397 0)
(0.866157 -0.000288145 0)
(0.866107 -0.000290419 0)
(0.866064 -0.000292282 0)
(0.866026 -0.000293924 0)
(0.865994 -0.000295347 0)
(0.865966 -0.000296479 0)
(0.865942 -0.00029757 0)
(0.865922 -0.000298529 0)
(0.865904 -0.000299304 0)
(0.865889 -0.00029989 0)
(0.865876 -0.000300502 0)
(0.865864 -0.000300992 0)
(0.865855 -0.000301421 0)
(0.865847 -0.000301793 0)
(0.865839 -0.000302146 0)
(0.865834 -0.000302338 0)
(0.865828 -0.00030256 0)
(0.865824 -0.000302785 0)
(0.86582 -0.000302985 0)
(0.865817 -0.000303094 0)
(0.865815 -0.000303225 0)
(0.865812 -0.000303285 0)
(0.86581 -0.000303375 0)
(0.865809 -0.000303444 0)
(0.865807 -0.000303554 0)
(0.865806 -0.000303576 0)
(0.865805 -0.000303628 0)
(0.865804 -0.000303623 0)
(0.865804 -0.000303671 0)
(0.865803 -0.000303713 0)
(0.865802 -0.000303776 0)
(0.865802 -0.000303753 0)
(0.865802 -0.000303763 0)
(0.865801 -0.000303772 0)
(0.865801 -0.00030384 0)
(0.865801 -0.000303814 0)
(0.865801 -0.000303824 0)
(0.865801 -0.000303801 0)
(0.8658 -0.000303831 0)
(0.8658 -0.000303841 0)
(0.8658 -0.000303858 0)
(0.8658 -0.000303811 0)
(0.8658 -0.00030383 0)
(0.8658 -0.000303809 0)
(0.8658 -0.000303834 0)
(0.8658 -0.000303827 0)
(0.8658 -0.000303834 0)
(0.8658 -0.000303803 0)
(0.8658 -0.000303828 0)
(0.8658 -0.000303813 0)
(0.8658 -0.000303838 0)
(0.8658 -0.000303824 0)
(0.8658 -0.000303834 0)
(0.8658 -0.000303811 0)
(0.8658 -0.00030383 0)
(0.8658 -0.000303826 0)
(0.8658 -0.000303845 0)
(0.865799 -0.00030382 0)
(0.865799 -0.000303833 0)
(0.865799 -0.000303818 0)
(0.865799 -0.000303819 0)
(0.865799 -0.000303791 0)
(0.865799 -0.000303781 0)
(0.865799 -0.00030373 0)
(0.865798 -0.000303694 0)
(0.865797 -0.000303628 0)
(0.865797 -0.000303547 0)
(0.865795 -0.000303404 0)
(0.865793 -0.000303232 0)
(0.865791 -0.000302977 0)
(0.865787 -0.000302645 0)
(0.865782 -0.000302184 0)
(0.865775 -0.000301645 0)
(0.865766 -0.000301014 0)
(0.865753 -0.000300663 0)
(0.865741 -0.000300876 0)
(0.865723 -0.000301454 0)
(0.865717 -0.000293345 0)
(0.865545 -0.00023957 0)
(0.865251 -7.34743e-05 0)
(0.863185 -0.000219208 0)
(0.960306 0.13591 0)
(1.02531 0.024436 0)
(0.976297 0.00334386 0)
(0.987378 0.000824083 0)
(0.983069 0.000102134 0)
(0.98497 0.000607137 0)
(0.983896 0.000612988 0)
(0.983802 0.000676711 0)
(0.98328 0.000628657 0)
(0.983004 0.00060457 0)
(0.982704 0.000570052 0)
(0.982486 0.00054636 0)
(0.982294 0.000524628 0)
(0.98214 0.000507993 0)
(0.982009 0.000494747 0)
(0.981901 0.000484197 0)
(0.981808 0.000475545 0)
(0.98173 0.000468439 0)
(0.981663 0.000462594 0)
(0.981605 0.000457605 0)
(0.981556 0.000453428 0)
(0.981513 0.000449941 0)
(0.981475 0.000446916 0)
(0.981443 0.00044425 0)
(0.981415 0.000442047 0)
(0.981391 0.000440031 0)
(0.98137 0.000438338 0)
(0.981352 0.000436892 0)
(0.981336 0.000435677 0)
(0.981323 0.000434516 0)
(0.981311 0.00043358 0)
(0.981301 0.000432773 0)
(0.981292 0.000432091 0)
(0.981284 0.000431428 0)
(0.981278 0.000430963 0)
(0.981272 0.000430489 0)
(0.981268 0.000430093 0)
(0.981264 0.000429752 0)
(0.98126 0.000429523 0)
(0.981257 0.00042925 0)
(0.981255 0.000429071 0)
(0.981252 0.000428876 0)
(0.981251 0.000428767 0)
(0.981249 0.000428605 0)
(0.981247 0.000428548 0)
(0.981246 0.00042842 0)
(0.981245 0.000428362 0)
(0.981244 0.000428286 0)
(0.981244 0.000428256 0)
(0.981243 0.000428149 0)
(0.981243 0.000428133 0)
(0.981242 0.00042809 0)
(0.981242 0.000428091 0)
(0.981241 0.000428005 0)
(0.981241 0.000428029 0)
(0.981241 0.000427989 0)
(0.981241 0.000427999 0)
(0.981241 0.000427966 0)
(0.981241 0.000427986 0)
(0.981241 0.000427956 0)
(0.981241 0.000428003 0)
(0.98124 0.000427972 0)
(0.98124 0.000428003 0)
(0.98124 0.000427979 0)
(0.98124 0.000428004 0)
(0.98124 0.000427978 0)
(0.98124 0.000428009 0)
(0.98124 0.000427975 0)
(0.98124 0.000428003 0)
(0.98124 0.000427976 0)
(0.98124 0.000427996 0)
(0.98124 0.000427971 0)
(0.98124 0.000427998 0)
(0.98124 0.00042797 0)
(0.98124 0.000427984 0)
(0.98124 0.000427956 0)
(0.98124 0.000427987 0)
(0.981239 0.000427973 0)
(0.981239 0.000427999 0)
(0.981239 0.000428003 0)
(0.981239 0.000428056 0)
(0.981239 0.000428079 0)
(0.981239 0.000428161 0)
(0.981238 0.000428235 0)
(0.981238 0.000428369 0)
(0.981237 0.000428529 0)
(0.981235 0.000428788 0)
(0.981233 0.000429121 0)
(0.981231 0.000429611 0)
(0.981227 0.000430252 0)
(0.981222 0.000431152 0)
(0.981215 0.000432238 0)
(0.981205 0.000433557 0)
(0.981192 0.000434545 0)
(0.981178 0.000435219 0)
(0.981151 0.000436359 0)
(0.981131 0.00045879 0)
(0.980908 0.000569063 0)
(0.980541 0.000943052 0)
(0.977593 0.00117799 0)
(0.984959 0.123302 0)
(1.05948 0.028663 0)
(1.01374 0.00469248 0)
(1.02589 0.000700382 0)
(1.02097 -0.000185983 0)
(1.02308 0.000441793 0)
(1.02197 0.000479959 0)
(1.02197 0.000561858 0)
(1.02149 0.000500166 0)
(1.02127 0.000464761 0)
(1.021 0.000416672 0)
(1.02082 0.000382485 0)
(1.02065 0.000351415 0)
(1.02052 0.000327085 0)
(1.0204 0.00030819 0)
(1.02031 0.000293264 0)
(1.02023 0.000281037 0)
(1.02016 0.000271041 0)
(1.0201 0.000262835 0)
(1.02005 0.000255841 0)
(1.02001 0.000249955 0)
(1.01997 0.000244994 0)
(1.01994 0.000240729 0)
(1.01991 0.000236961 0)
(1.01988 0.00023384 0)
(1.01986 0.000230979 0)
(1.01984 0.000228549 0)
(1.01983 0.000226453 0)
(1.01981 0.0002247 0)
(1.0198 0.000223076 0)
(1.01979 0.000221743 0)
(1.01978 0.00022056 0)
(1.01977 0.00021958 0)
(1.01976 0.000218617 0)
(1.01976 0.000217925 0)
(1.01975 0.00021725 0)
(1.01975 0.000216687 0)
(1.01974 0.000216159 0)
(1.01974 0.000215806 0)
(1.01974 0.000215415 0)
(1.01974 0.000215156 0)
(1.01973 0.000214854 0)
(1.01973 0.000214697 0)
(1.01973 0.000214452 0)
(1.01973 0.000214357 0)
(1.01973 0.000214181 0)
(1.01973 0.000214086 0)
(1.01972 0.000213951 0)
(1.01972 0.000213915 0)
(1.01972 0.000213766 0)
(1.01972 0.000213727 0)
(1.01972 0.000213643 0)
(1.01972 0.000213653 0)
(1.01972 0.00021353 0)
(1.01972 0.000213548 0)
(1.01972 0.000213492 0)
(1.01972 0.00021351 0)
(1.01972 0.000213459 0)
(1.01972 0.000213497 0)
(1.01972 0.000213446 0)
(1.01972 0.000213502 0)
(1.01972 0.000213465 0)
(1.01972 0.000213515 0)
(1.01972 0.000213476 0)
(1.01972 0.000213513 0)
(1.01972 0.000213472 0)
(1.01972 0.000213518 0)
(1.01972 0.000213472 0)
(1.01972 0.000213514 0)
(1.01972 0.000213475 0)
(1.01972 0.000213502 0)
(1.01972 0.000213462 0)
(1.01972 0.000213502 0)
(1.01972 0.000213463 0)
(1.01972 0.000213487 0)
(1.01972 0.000213444 0)
(1.01972 0.000213483 0)
(1.01972 0.000213465 0)
(1.01972 0.000213509 0)
(1.01972 0.000213509 0)
(1.01972 0.000213585 0)
(1.01972 0.000213621 0)
(1.01972 0.00021374 0)
(1.01972 0.000213848 0)
(1.01972 0.000214048 0)
(1.01972 0.00021428 0)
(1.01972 0.00021465 0)
(1.01971 0.000215135 0)
(1.01971 0.000215858 0)
(1.01971 0.000216795 0)
(1.0197 0.000218115 0)
(1.0197 0.000219743 0)
(1.01969 0.000221829 0)
(1.01968 0.000223692 0)
(1.01966 0.000226117 0)
(1.01963 0.000230523 0)
(1.0196 0.000271533 0)
(1.01935 0.000444102 0)
(1.01899 0.0010496 0)
(1.01589 0.00176925 0)
(0.988567 0.109984 0)
(1.06794 0.0309708 0)
(1.02558 0.00569844 0)
(1.03849 0.000547804 0)
(1.03315 -0.000407656 0)
(1.03543 0.00029678 0)
(1.0343 0.000368779 0)
(1.03441 0.000461862 0)
(1.03398 0.000390908 0)
(1.03382 0.000346132 0)
(1.0336 0.000287703 0)
(1.03345 0.000245297 0)
(1.03332 0.000207232 0)
(1.03321 0.000177293 0)
(1.03312 0.000153845 0)
(1.03304 0.000135283 0)
(1.03298 0.000120062 0)
(1.03292 0.000107615 0)
(1.03287 9.73819e-05 0)
(1.03283 8.86629e-05 0)
(1.0328 8.13017e-05 0)
(1.03276 7.50302e-05 0)
(1.03274 6.96282e-05 0)
(1.03271 6.48295e-05 0)
(1.03269 6.0805e-05 0)
(1.03267 5.70941e-05 0)
(1.03266 5.38788e-05 0)
(1.03264 5.10555e-05 0)
(1.03263 4.8798e-05 0)
(1.03262 4.67793e-05 0)
(1.03261 4.51091e-05 0)
(1.0326 4.36037e-05 0)
(1.03259 4.23748e-05 0)
(1.03259 4.11646e-05 0)
(1.03258 4.02615e-05 0)
(1.03258 3.94052e-05 0)
(1.03257 3.87015e-05 0)
(1.03257 3.80144e-05 0)
(1.03257 3.75423e-05 0)
(1.03256 3.70458e-05 0)
(1.03256 3.67162e-05 0)
(1.03256 3.6319e-05 0)
(1.03256 3.61047e-05 0)
(1.03256 3.57872e-05 0)
(1.03255 3.56461e-05 0)
(1.03255 3.54266e-05 0)
(1.03255 3.53019e-05 0)
(1.03255 3.5107e-05 0)
(1.03255 3.50482e-05 0)
(1.03255 3.48682e-05 0)
(1.03255 3.48113e-05 0)
(1.03255 3.46853e-05 0)
(1.03255 3.46953e-05 0)
(1.03255 3.45437e-05 0)
(1.03255 3.4551e-05 0)
(1.03255 3.44784e-05 0)
(1.03255 3.45067e-05 0)
(1.03255 3.44395e-05 0)
(1.03255 3.44873e-05 0)
(1.03255 3.44239e-05 0)
(1.03255 3.44906e-05 0)
(1.03255 3.44476e-05 0)
(1.03255 3.45116e-05 0)
(1.03255 3.44621e-05 0)
(1.03255 3.45084e-05 0)
(1.03255 3.44578e-05 0)
(1.03255 3.45165e-05 0)
(1.03255 3.44588e-05 0)
(1.03255 3.45078e-05 0)
(1.03255 3.44589e-05 0)
(1.03255 3.44943e-05 0)
(1.03255 3.44414e-05 0)
(1.03255 3.44872e-05 0)
(1.03255 3.44377e-05 0)
(1.03255 3.44687e-05 0)
(1.03255 3.44154e-05 0)
(1.03255 3.4461e-05 0)
(1.03255 3.44377e-05 0)
(1.03255 3.44957e-05 0)
(1.03255 3.4495e-05 0)
(1.03255 3.45882e-05 0)
(1.03255 3.46387e-05 0)
(1.03255 3.47892e-05 0)
(1.03255 3.49262e-05 0)
(1.03255 3.51813e-05 0)
(1.03254 3.54783e-05 0)
(1.03254 3.59482e-05 0)
(1.03254 3.65586e-05 0)
(1.03254 3.74753e-05 0)
(1.03254 3.86662e-05 0)
(1.03253 4.03474e-05 0)
(1.03253 4.24606e-05 0)
(1.03252 4.53076e-05 0)
(1.03251 4.82061e-05 0)
(1.03249 5.32443e-05 0)
(1.03246 6.23468e-05 0)
(1.03242 0.000123598 0)
(1.03218 0.000349228 0)
(1.03186 0.00116817 0)
(1.02902 0.002297 0)
(0.986394 0.0983076 0)
(1.06821 0.0321974 0)
(1.02896 0.00652394 0)
(1.04242 0.000502937 0)
(1.03679 -0.000472146 0)
(1.03921 0.000276667 0)
(1.03808 0.000380008 0)
(1.03829 0.000478844 0)
(1.03791 0.000402848 0)
(1.03781 0.000351526 0)
(1.03764 0.000286743 0)
(1.03753 0.000239358 0)
(1.03742 0.000197588 0)
(1.03734 0.000165064 0)
(1.03727 0.000138389 0)
(1.03722 0.000117058 0)
(1.03717 9.95776e-05 0)
(1.03712 8.52894e-05 0)
(1.03709 7.35156e-05 0)
(1.03705 6.35294e-05 0)
(1.03703 5.51116e-05 0)
(1.037 4.79056e-05 0)
(1.03698 4.17031e-05 0)
(1.03696 3.62054e-05 0)
(1.03694 3.15764e-05 0)
(1.03693 2.73323e-05 0)
(1.03692 2.36362e-05 0)
(1.0369 2.03962e-05 0)
(1.03689 1.77653e-05 0)
(1.03689 1.54263e-05 0)
(1.03688 1.3477e-05 0)
(1.03687 1.17097e-05 0)
(1.03686 1.02729e-05 0)
(1.03686 8.86915e-06 0)
(1.03685 7.76743e-06 0)
(1.03685 6.74679e-06 0)
(1.03685 5.91868e-06 0)
(1.03684 5.11215e-06 0)
(1.03684 4.5223e-06 0)
(1.03684 3.91951e-06 0)
(1.03684 3.50923e-06 0)
(1.03683 3.02319e-06 0)
(1.03683 2.73655e-06 0)
(1.03683 2.35447e-06 0)
(1.03683 2.1458e-06 0)
(1.03683 1.87281e-06 0)
(1.03683 1.70728e-06 0)
(1.03683 1.46864e-06 0)
(1.03683 1.376e-06 0)
(1.03683 1.17682e-06 0)
(1.03683 1.09875e-06 0)
(1.03682 9.36477e-07 0)
(1.03682 9.36637e-07 0)
(1.03682 7.73917e-07 0)
(1.03682 7.62217e-07 0)
(1.03682 6.74353e-07 0)
(1.03682 7.05957e-07 0)
(1.03682 6.34851e-07 0)
(1.03682 6.82056e-07 0)
(1.03682 6.16736e-07 0)
(1.03682 6.8763e-07 0)
(1.03682 6.42359e-07 0)
(1.03682 7.14275e-07 0)
(1.03682 6.652e-07 0)
(1.03682 7.13451e-07 0)
(1.03682 6.5882e-07 0)
(1.03682 7.21831e-07 0)
(1.03682 6.60419e-07 0)
(1.03682 7.07968e-07 0)
(1.03682 6.55708e-07 0)
(1.03682 6.95558e-07 0)
(1.03682 6.35389e-07 0)
(1.03682 6.77707e-07 0)
(1.03682 6.22865e-07 0)
(1.03682 6.54513e-07 0)
(1.03682 5.97732e-07 0)
(1.03682 6.42184e-07 0)
(1.03682 6.15293e-07 0)
(1.03682 6.82671e-07 0)
(1.03682 6.86541e-07 0)
(1.03682 7.896e-07 0)
(1.03682 8.54453e-07 0)
(1.03682 1.02837e-06 0)
(1.03682 1.19391e-06 0)
(1.03682 1.49206e-06 0)
(1.03682 1.84553e-06 0)
(1.03682 2.42953e-06 0)
(1.03682 3.17069e-06 0)
(1.03682 4.26584e-06 0)
(1.03681 5.68846e-06 0)
(1.03681 7.68363e-06 0)
(1.03681 1.02314e-05 0)
(1.0368 1.38185e-05 0)
(1.03679 1.78329e-05 0)
(1.03678 2.55611e-05 0)
(1.03674 3.93725e-05 0)
(1.0367 0.000119356 0)
(1.03647 0.000383919 0)
(1.03621 0.00139854 0)
(1.03382 0.00284682 0)
(0.983101 0.087704 0)
(1.0661 0.0325107 0)
(1.02959 0.00711564 0)
(1.04347 0.000479778 0)
(1.03762 -0.000484669 0)
(1.04015 0.000282426 0)
(1.03902 0.000415599 0)
(1.03932 0.000518144 0)
(1.039 0.000439359 0)
(1.03896 0.000382903 0)
(1.03883 0.00031312 0)
(1.03876 0.000261428 0)
(1.03868 0.000216093 0)
(1.03863 0.000180755 0)
(1.03858 0.000151691 0)
(1.03854 0.000128435 0)
(1.0385 0.000109407 0)
(1.03847 9.38847e-05 0)
(1.03845 8.10791e-05 0)
(1.03842 7.02787e-05 0)
(1.0384 6.12218e-05 0)
(1.03839 5.34636e-05 0)
(1.03837 4.68061e-05 0)
(1.03836 4.09538e-05 0)
(1.03834 3.6038e-05 0)
(1.03833 3.15899e-05 0)
(1.03832 2.77395e-05 0)
(1.03831 2.43981e-05 0)
(1.03831 2.15401e-05 0)
(1.0383 1.89623e-05 0)
(1.03829 1.67997e-05 0)
(1.03829 1.48316e-05 0)
(1.03828 1.32208e-05 0)
(1.03828 1.16699e-05 0)
(1.03827 1.04046e-05 0)
(1.03827 9.24847e-06 0)
(1.03827 8.31281e-06 0)
(1.03827 7.41454e-06 0)
(1.03826 6.72349e-06 0)
(1.03826 6.02025e-06 0)
(1.03826 5.52711e-06 0)
(1.03826 4.96773e-06 0)
(1.03826 4.60655e-06 0)
(1.03826 4.1669e-06 0)
(1.03825 3.88774e-06 0)
(1.03825 3.57788e-06 0)
(1.03825 3.38046e-06 0)
(1.03825 3.11202e-06 0)
(1.03825 2.98322e-06 0)
(1.03825 2.76668e-06 0)
(1.03825 2.66894e-06 0)
(1.03825 2.47855e-06 0)
(1.03825 2.46103e-06 0)
(1.03825 2.29801e-06 0)
(1.03825 2.26947e-06 0)
(1.03825 2.16588e-06 0)
(1.03825 2.1921e-06 0)
(1.03825 2.12498e-06 0)
(1.03825 2.16876e-06 0)
(1.03825 2.10439e-06 0)
(1.03825 2.17526e-06 0)
(1.03825 2.13075e-06 0)
(1.03825 2.20517e-06 0)
(1.03825 2.16222e-06 0)
(1.03825 2.20963e-06 0)
(1.03825 2.15335e-06 0)
(1.03825 2.21464e-06 0)
(1.03825 2.15535e-06 0)
(1.03825 2.19944e-06 0)
(1.03825 2.14685e-06 0)
(1.03825 2.18771e-06 0)
(1.03825 2.1252e-06 0)
(1.03825 2.16075e-06 0)
(1.03825 2.10384e-06 0)
(1.03825 2.13244e-06 0)
(1.03825 2.07537e-06 0)
(1.03825 2.11577e-06 0)
(1.03825 2.08605e-06 0)
(1.03825 2.15768e-06 0)
(1.03825 2.16811e-06 0)
(1.03825 2.27631e-06 0)
(1.03825 2.35372e-06 0)
(1.03825 2.5429e-06 0)
(1.03825 2.73258e-06 0)
(1.03825 3.06342e-06 0)
(1.03825 3.46529e-06 0)
(1.03825 4.12243e-06 0)
(1.03824 4.99349e-06 0)
(1.03824 6.2459e-06 0)
(1.03824 7.86907e-06 0)
(1.03824 1.01315e-05 0)
(1.03824 1.30588e-05 0)
(1.03823 1.73367e-05 0)
(1.03822 2.24715e-05 0)
(1.03821 3.26967e-05 0)
(1.03818 5.07299e-05 0)
(1.03814 0.000147115 0)
(1.03794 0.000446177 0)
(1.03774 0.00162571 0)
(1.03587 0.00331293 0)
(0.980018 0.0779993 0)
(1.06348 0.0320581 0)
(1.02937 0.0074601 0)
(1.04355 0.000444606 0)
(1.03755 -0.000488463 0)
(1.04016 0.000278436 0)
(1.03904 0.000438116 0)
(1.03943 0.000542202 0)
(1.03916 0.000462931 0)
(1.03917 0.000403105 0)
(1.03908 0.00033023 0)
(1.03904 0.000275596 0)
(1.039 0.000227745 0)
(1.03897 0.00019031 0)
(1.03894 0.000159688 0)
(1.03891 0.000135197 0)
(1.03889 0.00011517 0)
(1.03887 9.88487e-05 0)
(1.03886 8.53627e-05 0)
(1.03884 7.40118e-05 0)
(1.03883 6.45177e-05 0)
(1.03882 5.63665e-05 0)
(1.03881 4.93609e-05 0)
(1.0388 4.32259e-05 0)
(1.03879 3.80536e-05 0)
(1.03878 3.33908e-05 0)
(1.03878 2.93485e-05 0)
(1.03877 2.58311e-05 0)
(1.03877 2.28031e-05 0)
(1.03876 2.00698e-05 0)
(1.03876 1.77671e-05 0)
(1.03875 1.56628e-05 0)
(1.03875 1.39243e-05 0)
(1.03875 1.22785e-05 0)
(1.03874 1.09094e-05 0)
(1.03874 9.66375e-06 0)
(1.03874 8.6579e-06 0)
(1.03874 7.70102e-06 0)
(1.03874 6.95103e-06 0)
(1.03873 6.18426e-06 0)
(1.03873 5.64211e-06 0)
(1.03873 5.05036e-06 0)
(1.03873 4.65074e-06 0)
(1.03873 4.18558e-06 0)
(1.03873 3.87399e-06 0)
(1.03873 3.5411e-06 0)
(1.03873 3.31886e-06 0)
(1.03873 3.01303e-06 0)
(1.03873 2.8444e-06 0)
(1.03873 2.60933e-06 0)
(1.03872 2.49667e-06 0)
(1.03872 2.28502e-06 0)
(1.03872 2.24713e-06 0)
(1.03872 2.08339e-06 0)
(1.03872 2.04369e-06 0)
(1.03872 1.92561e-06 0)
(1.03872 1.94205e-06 0)
(1.03872 1.87873e-06 0)
(1.03872 1.92179e-06 0)
(1.03872 1.85776e-06 0)
(1.03872 1.92813e-06 0)
(1.03872 1.88438e-06 0)
(1.03872 1.9603e-06 0)
(1.03872 1.923e-06 0)
(1.03872 1.97046e-06 0)
(1.03872 1.9127e-06 0)
(1.03872 1.97113e-06 0)
(1.03872 1.91515e-06 0)
(1.03872 1.9575e-06 0)
(1.03872 1.90421e-06 0)
(1.03872 1.94549e-06 0)
(1.03872 1.8824e-06 0)
(1.03872 1.91341e-06 0)
(1.03872 1.85535e-06 0)
(1.03872 1.88064e-06 0)
(1.03872 1.82338e-06 0)
(1.03872 1.86051e-06 0)
(1.03872 1.82754e-06 0)
(1.03872 1.90058e-06 0)
(1.03872 1.91547e-06 0)
(1.03872 2.0267e-06 0)
(1.03872 2.1127e-06 0)
(1.03872 2.31314e-06 0)
(1.03872 2.52034e-06 0)
(1.03872 2.8769e-06 0)
(1.03872 3.33112e-06 0)
(1.03872 4.02496e-06 0)
(1.03872 4.94596e-06 0)
(1.03872 6.27191e-06 0)
(1.03872 8.01107e-06 0)
(1.03872 1.0454e-05 0)
(1.03871 1.36715e-05 0)
(1.03871 1.85402e-05 0)
(1.0387 2.47298e-05 0)
(1.03869 3.75788e-05 0)
(1.03866 5.99099e-05 0)
(1.03863 0.000170701 0)
(1.03847 0.000496092 0)
(1.03834 0.00179851 0)
(1.03701 0.00365056 0)
(0.977435 0.0691586 0)
(1.06096 0.0310006 0)
(1.02893 0.00758244 0)
(1.04333 0.000400632 0)
(1.03721 -0.000487279 0)
(1.03988 0.000265065 0)
(1.03877 0.000446404 0)
(1.03924 0.000549903 0)
(1.03901 0.000472241 0)
(1.03908 0.000410907 0)
(1.03902 0.000337036 0)
(1.03902 0.000281109 0)
(1.039 0.000232191 0)
(1.03899 0.000193807 0)
(1.03898 0.000162488 0)
(1.03897 0.000137433 0)
(1.03896 0.000116957 0)
(1.03896 0.000100272 0)
(1.03895 8.64768e-05 0)
(1.03895 7.48669e-05 0)
(1.03894 6.51677e-05 0)
(1.03893 5.68285e-05 0)
(1.03893 4.96436e-05 0)
(1.03893 4.33569e-05 0)
(1.03892 3.80415e-05 0)
(1.03892 3.32433e-05 0)
(1.03891 2.90808e-05 0)
(1.03891 2.54361e-05 0)
(1.03891 2.23172e-05 0)
(1.03891 1.95052e-05 0)
(1.0389 1.71309e-05 0)
(1.0389 1.49501e-05 0)
(1.0389 1.31357e-05 0)
(1.0389 1.14419e-05 0)
(1.0389 1.00274e-05 0)
(1.03889 8.73046e-06 0)
(1.03889 7.69112e-06 0)
(1.03889 6.70037e-06 0)
(1.03889 5.93136e-06 0)
(1.03889 5.13722e-06 0)
(1.03889 4.57934e-06 0)
(1.03889 3.98175e-06 0)
(1.03889 3.57423e-06 0)
(1.03889 3.10758e-06 0)
(1.03889 2.79688e-06 0)
(1.03888 2.44205e-06 0)
(1.03888 2.20631e-06 0)
(1.03888 1.8771e-06 0)
(1.03888 1.69143e-06 0)
(1.03888 1.43769e-06 0)
(1.03888 1.31502e-06 0)
(1.03888 1.08437e-06 0)
(1.03888 1.02669e-06 0)
(1.03888 8.52758e-07 0)
(1.03888 8.05246e-07 0)
(1.03888 6.70646e-07 0)
(1.03888 6.79008e-07 0)
(1.03888 6.13922e-07 0)
(1.03888 6.61955e-07 0)
(1.03888 5.97622e-07 0)
(1.03888 6.70367e-07 0)
(1.03888 6.24356e-07 0)
(1.03888 7.03717e-07 0)
(1.03888 6.68552e-07 0)
(1.03888 7.19867e-07 0)
(1.03888 6.60269e-07 0)
(1.03888 7.17977e-07 0)
(1.03888 6.61992e-07 0)
(1.03888 7.05345e-07 0)
(1.03888 6.48905e-07 0)
(1.03888 6.9245e-07 0)
(1.03888 6.27403e-07 0)
(1.03888 6.57727e-07 0)
(1.03888 5.97265e-07 0)
(1.03888 6.20742e-07 0)
(1.03888 5.62073e-07 0)
(1.03888 5.98558e-07 0)
(1.03888 5.61341e-07 0)
(1.03888 6.34658e-07 0)
(1.03888 6.5078e-07 0)
(1.03888 7.65293e-07 0)
(1.03888 8.54278e-07 0)
(1.03888 1.0704e-06 0)
(1.03888 1.29376e-06 0)
(1.03888 1.66969e-06 0)
(1.03888 2.14359e-06 0)
(1.03888 2.85421e-06 0)
(1.03888 3.75614e-06 0)
(1.03888 5.08691e-06 0)
(1.03888 6.86576e-06 0)
(1.03888 9.40794e-06 0)
(1.03888 1.28244e-05 0)
(1.03887 1.81609e-05 0)
(1.03887 2.52677e-05 0)
(1.03886 4.04995e-05 0)
(1.03884 6.66154e-05 0)
(1.03881 0.000188615 0)
(1.03869 0.00053039 0)
(1.03863 0.00191152 0)
(1.03784 0.00385972 0)
(0.975341 0.0610853 0)
(1.0587 0.0294652 0)
(1.02847 0.00751144 0)
(1.04304 0.000354273 0)
(1.03682 -0.000479475 0)
(1.03954 0.000246144 0)
(1.03844 0.000443329 0)
(1.03896 0.000544398 0)
(1.03878 0.000470034 0)
(1.0389 0.000408878 0)
(1.03887 0.000335887 0)
(1.0389 0.000280163 0)
(1.03891 0.00023149 0)
(1.03892 0.000193205 0)
(1.03892 0.000161986 0)
(1.03893 0.000136997 0)
(1.03894 0.000116598 0)
(1.03894 9.99637e-05 0)
(1.03894 8.62187e-05 0)
(1.03894 7.46435e-05 0)
(1.03894 6.49758e-05 0)
(1.03895 5.66637e-05 0)
(1.03895 4.94893e-05 0)
(1.03895 4.32031e-05 0)
(1.03895 3.78863e-05 0)
(1.03895 3.30733e-05 0)
(1.03895 2.89096e-05 0)
(1.03895 2.52362e-05 0)
(1.03895 2.21067e-05 0)
(1.03894 1.928e-05 0)
(1.03894 1.68933e-05 0)
(1.03894 1.46888e-05 0)
(1.03894 1.28449e-05 0)
(1.03894 1.11374e-05 0)
(1.03894 9.71817e-06 0)
(1.03894 8.39254e-06 0)
(1.03894 7.34221e-06 0)
(1.03894 6.33121e-06 0)
(1.03894 5.56192e-06 0)
(1.03894 4.75497e-06 0)
(1.03894 4.1917e-06 0)
(1.03894 3.58678e-06 0)
(1.03894 3.17279e-06 0)
(1.03894 2.70084e-06 0)
(1.03894 2.39273e-06 0)
(1.03894 2.0285e-06 0)
(1.03894 1.80157e-06 0)
(1.03894 1.4683e-06 0)
(1.03894 1.2901e-06 0)
(1.03894 1.02288e-06 0)
(1.03894 8.98232e-07 0)
(1.03893 6.55255e-07 0)
(1.03893 5.85373e-07 0)
(1.03893 4.01744e-07 0)
(1.03893 3.56605e-07 0)
(1.03893 2.1006e-07 0)
(1.03893 2.14936e-07 0)
(1.03893 1.4331e-07 0)
(1.03893 2.00186e-07 0)
(1.03893 1.36107e-07 0)
(1.03893 2.1457e-07 0)
(1.03893 1.63177e-07 0)
(1.03893 2.4778e-07 0)
(1.03893 2.12663e-07 0)
(1.03893 2.71207e-07 0)
(1.03893 2.09844e-07 0)
(1.03893 2.69265e-07 0)
(1.03893 2.09462e-07 0)
(1.03893 2.55332e-07 0)
(1.03893 1.93587e-07 0)
(1.03893 2.41006e-07 0)
(1.03893 1.71516e-07 0)
(1.03893 2.03068e-07 0)
(1.03893 1.38316e-07 0)
(1.03893 1.61251e-07 0)
(1.03893 9.8749e-08 0)
(1.03893 1.37513e-07 0)
(1.03893 9.53709e-08 0)
(1.03893 1.68804e-07 0)
(1.03893 1.84156e-07 0)
(1.03893 3.03078e-07 0)
(1.03893 3.90871e-07 0)
(1.03893 6.09694e-07 0)
(1.03893 8.35385e-07 0)
(1.03893 1.2165e-06 0)
(1.03893 1.67052e-06 0)
(1.03893 2.36354e-06 0)
(1.03893 3.24945e-06 0)
(1.03893 4.57546e-06 0)
(1.03893 6.36483e-06 0)
(1.03893 8.95874e-06 0)
(1.03893 1.25017e-05 0)
(1.03893 1.81793e-05 0)
(1.03893 2.60156e-05 0)
(1.03892 4.31581e-05 0)
(1.03891 7.21825e-05 0)
(1.03889 0.000201557 0)
(1.03882 0.00055005 0)
(1.03882 0.00196701 0)
(1.03856 0.00394863 0)
(0.973661 0.0536586 0)
(1.05672 0.0275454 0)
(1.02804 0.00727101 0)
(1.04273 0.000308601 0)
(1.03644 -0.000464705 0)
(1.03919 0.00022354 0)
(1.0381 0.000430108 0)
(1.03868 0.000527127 0)
(1.03854 0.000457374 0)
(1.03869 0.000397878 0)
(1.0387 0.000327394 0)
(1.03876 0.000273181 0)
(1.03879 0.000225882 0)
(1.03882 0.0001886 0)
(1.03884 0.000158198 0)
(1.03886 0.000133849 0)
(1.03887 0.000114003 0)
(1.03889 9.78033e-05 0)
(1.0389 8.4429e-05 0)
(1.03891 7.31584e-05 0)
(1.03892 6.37376e-05 0)
(1.03892 5.56456e-05 0)
(1.03893 4.86537e-05 0)
(1.03893 4.25098e-05 0)
(1.03894 3.73194e-05 0)
(1.03894 3.26066e-05 0)
(1.03894 2.85473e-05 0)
(1.03894 2.49411e-05 0)
(1.03895 2.18705e-05 0)
(1.03895 1.90893e-05 0)
(1.03895 1.67454e-05 0)
(1.03895 1.4572e-05 0)
(1.03895 1.27427e-05 0)
(1.03895 1.10554e-05 0)
(1.03895 9.66495e-06 0)
(1.03895 8.33811e-06 0)
(1.03895 7.29869e-06 0)
(1.03895 6.28955e-06 0)
(1.03895 5.53546e-06 0)
(1.03895 4.73034e-06 0)
(1.03895 4.17054e-06 0)
(1.03895 3.56325e-06 0)
(1.03895 3.14407e-06 0)
(1.03895 2.666e-06 0)
(1.03895 2.36048e-06 0)
(1.03895 1.98569e-06 0)
(1.03895 1.76692e-06 0)
(1.03895 1.42642e-06 0)
(1.03895 1.25167e-06 0)
(1.03895 9.79176e-07 0)
(1.03895 8.58008e-07 0)
(1.03895 6.11064e-07 0)
(1.03895 5.34293e-07 0)
(1.03895 3.46174e-07 0)
(1.03895 3.11883e-07 0)
(1.03895 1.61841e-07 0)
(1.03895 1.66052e-07 0)
(1.03895 8.72849e-08 0)
(1.03895 1.52049e-07 0)
(1.03895 9.03491e-08 0)
(1.03895 1.75584e-07 0)
(1.03895 1.19392e-07 0)
(1.03895 2.08091e-07 0)
(1.03895 1.7429e-07 0)
(1.03895 2.40414e-07 0)
(1.03895 1.78921e-07 0)
(1.03895 2.40683e-07 0)
(1.03895 1.76779e-07 0)
(1.03895 2.24424e-07 0)
(1.03895 1.57766e-07 0)
(1.03895 2.08461e-07 0)
(1.03895 1.34368e-07 0)
(1.03895 1.66257e-07 0)
(1.03895 9.8488e-08 0)
(1.03895 1.20682e-07 0)
(1.03895 5.39316e-08 0)
(1.03895 9.49878e-08 0)
(1.03895 4.93485e-08 0)
(1.03895 1.21487e-07 0)
(1.03895 1.33164e-07 0)
(1.03895 2.55405e-07 0)
(1.03895 3.40874e-07 0)
(1.03895 5.46346e-07 0)
(1.03895 7.60257e-07 0)
(1.03895 1.13542e-06 0)
(1.03895 1.57227e-06 0)
(1.03895 2.25426e-06 0)
(1.03895 3.12723e-06 0)
(1.03895 4.4354e-06 0)
(1.03895 6.2062e-06 0)
(1.03895 8.80176e-06 0)
(1.03895 1.23911e-05 0)
(1.03895 1.82631e-05 0)
(1.03895 2.65938e-05 0)
(1.03895 4.5056e-05 0)
(1.03895 7.59611e-05 0)
(1.03893 0.000208666 0)
(1.03892 0.000554766 0)
(1.03898 0.00196685 0)
(1.03921 0.00392531 0)
(0.972314 0.0467714 0)
(1.055 0.0253141 0)
(1.02768 0.00688195 0)
(1.04245 0.000265045 0)
(1.0361 -0.000442863 0)
(1.03887 0.000198571 0)
(1.03778 0.00040767 0)
(1.03842 0.000499153 0)
(1.03831 0.000435021 0)
(1.0385 0.000378492 0)
(1.03854 0.00031193 0)
(1.03862 0.000260394 0)
(1.03867 0.000215462 0)
(1.03871 0.000179986 0)
(1.03875 0.00015105 0)
(1.03878 0.000127861 0)
(1.03881 0.000108989 0)
(1.03883 9.35719e-05 0)
(1.03885 8.08533e-05 0)
(1.03886 7.01288e-05 0)
(1.03888 6.11493e-05 0)
(1.03889 5.34475e-05 0)
(1.0389 4.67888e-05 0)
(1.03891 4.09192e-05 0)
(1.03892 3.59665e-05 0)
(1.03892 3.14601e-05 0)
(1.03893 2.75929e-05 0)
(1.03893 2.41418e-05 0)
(1.03894 2.11932e-05 0)
(1.03894 1.8516e-05 0)
(1.03894 1.62655e-05 0)
(1.03895 1.41786e-05 0)
(1.03895 1.24064e-05 0)
(1.03895 1.07757e-05 0)
(1.03895 9.44448e-06 0)
(1.03895 8.15313e-06 0)
(1.03895 7.1481e-06 0)
(1.03895 6.17038e-06 0)
(1.03895 5.4484e-06 0)
(1.03896 4.66571e-06 0)
(1.03896 4.12036e-06 0)
(1.03896 3.52864e-06 0)
(1.03896 3.11208e-06 0)
(1.03896 2.64123e-06 0)
(1.03896 2.34389e-06 0)
(1.03896 1.96564e-06 0)
(1.03896 1.75583e-06 0)
(1.03896 1.41742e-06 0)
(1.03896 1.24422e-06 0)
(1.03896 9.73446e-07 0)
(1.03896 8.54802e-07 0)
(1.03896 6.09289e-07 0)
(1.03896 5.23674e-07 0)
(1.03896 3.31426e-07 0)
(1.03896 3.01586e-07 0)
(1.03896 1.53124e-07 0)
(1.03896 1.57743e-07 0)
(1.03896 7.56932e-08 0)
(1.03896 1.43372e-07 0)
(1.03896 8.71238e-08 0)
(1.03896 1.77429e-07 0)
(1.03896 1.21579e-07 0)
(1.03896 2.1026e-07 0)
(1.03896 1.81408e-07 0)
(1.03896 2.5242e-07 0)
(1.03896 1.93941e-07 0)
(1.03896 2.56407e-07 0)
(1.03896 1.92038e-07 0)
(1.03896 2.38802e-07 0)
(1.03896 1.70063e-07 0)
(1.03896 2.20867e-07 0)
(1.03896 1.44937e-07 0)
(1.03896 1.73733e-07 0)
(1.03896 1.05325e-07 0)
(1.03896 1.2563e-07 0)
(1.03896 5.67085e-08 0)
(1.03896 9.67023e-08 0)
(1.03896 5.05991e-08 0)
(1.03896 1.19189e-07 0)
(1.03896 1.25797e-07 0)
(1.03896 2.47711e-07 0)
(1.03896 3.31209e-07 0)
(1.03896 5.25266e-07 0)
(1.03896 7.29263e-07 0)
(1.03896 1.09385e-06 0)
(1.03896 1.51213e-06 0)
(1.03896 2.17264e-06 0)
(1.03896 3.01722e-06 0)
(1.03896 4.27771e-06 0)
(1.03896 5.98936e-06 0)
(1.03896 8.52536e-06 0)
(1.03896 1.2069e-05 0)
(1.03896 1.7968e-05 0)
(1.03897 2.65211e-05 0)
(1.03897 4.56352e-05 0)
(1.03897 7.73146e-05 0)
(1.03896 0.00020927 0)
(1.03901 0.000544372 0)
(1.03912 0.00191363 0)
(1.03982 0.00379836 0)
(0.971235 0.0403345 0)
(1.05354 0.0228302 0)
(1.02737 0.00636336 0)
(1.0422 0.000224381 0)
(1.03581 -0.000413726 0)
(1.03858 0.000172489 0)
(1.0375 0.000377157 0)
(1.03817 0.000461717 0)
(1.0381 0.000403969 0)
(1.03832 0.000351544 0)
(1.03838 0.000290131 0)
(1.03849 0.000242305 0)
(1.03855 0.000200622 0)
(1.03862 0.000167664 0)
(1.03866 0.000140774 0)
(1.03871 0.000119218 0)
(1.03874 0.000101688 0)
(1.03877 8.73649e-05 0)
(1.0388 7.55562e-05 0)