/*--------------------------------*- C++ -*----------------------------------*\
  =========                 |
  \\      /  F ield         | OpenFOAM: The Open Source CFD Toolbox
   \\    /   O peration     | Website:  https://openfoam.org
    \\  /    A nd           | Version:  7
     \\/     M anipulation  |
\*---------------------------------------------------------------------------*/
FoamFile
{
    version     2.0;
    format      ascii;
    class       volScalarField;
    location    "1.5";
    object      p;
}
// * * * * * * * * * * * * * * * * * * * * * * * * * * * * * * * * * * * * * //

dimensions      [0 2 -2 0 0 0 0];

internalField   nonuniform List<scalar> 
4000
(
427.057
413.82
409.764
404.489
399.804
395.016
390.412
385.867
381.41
377.008
372.656
368.342
364.06
359.803
355.566
351.345
347.138
342.941
338.752
334.571
330.395
326.223
322.054
317.889
313.725
309.563
305.403
301.243
297.085
292.927
288.769
284.612
280.455
276.299
272.142
267.986
263.83
259.674
255.518
251.362
247.206
243.05
238.894
234.738
230.582
226.426
222.27
218.114
213.959
209.803
205.647
201.491
197.335
193.179
189.023
184.868
180.712
176.556
172.4
168.244
164.088
159.932
155.777
151.621
147.465
143.309
139.153
134.998
130.842
126.686
122.53
118.374
114.218
110.063
105.907
101.751
97.595
93.4392
89.2834
85.1276
80.9718
76.8159
72.6602
68.5044
64.3487
60.1931
56.0376
51.8823
47.7272
43.5725
39.4184
35.2651
31.1131
26.9629
22.8153
18.6709
14.531
10.3928
6.27117
2.14862
424.61
413.73
409.614
404.301
399.615
394.824
390.221
385.674
381.217
376.815
372.463
368.148
363.866
359.608
355.371
351.15
346.943
342.746
338.557
334.376
330.2
326.028
321.859
317.694
313.53
309.368
305.208
301.048
296.89
292.732
288.574
284.417
280.26
276.103
271.947
267.791
263.635
259.478
255.322
251.166
247.01
242.855
238.699
234.543
230.387
226.231
222.075
217.919
213.763
209.607
205.452
201.296
197.14
192.984
188.828
184.672
180.516
176.361
172.205
168.049
163.893
159.737
155.581
151.426
147.27
143.114
138.958
134.802
130.646
126.491
122.335
118.179
114.023
109.867
105.711
101.556
97.3997
93.2439
89.0881
84.9323
80.7765
76.6207
72.4649
68.3091
64.1534
59.9978
55.8423
51.687
47.5319
43.3772
39.2231
35.0698
30.9178
26.7675
22.6199
18.4756
14.3358
10.1981
6.0778
1.967
423.328
413.727
409.567
404.222
399.536
394.741
390.138
385.59
381.133
376.73
372.377
368.063
363.78
359.522
355.285
351.064
346.856
342.659
338.471
334.289
330.113
325.941
321.772
317.607
313.443
309.281
305.121
300.961
296.803
292.645
288.487
284.33
280.173
276.017
271.86
267.704
263.548
259.392
255.236
251.079
246.924
242.768
238.612
234.456
230.3
226.144
221.988
217.832
213.676
209.521
205.365
201.209
197.053
192.897
188.741
184.585
180.429
176.274
172.118
167.962
163.806
159.65
155.494
151.339
147.183
143.027
138.871
134.715
130.559
126.404
122.248
118.092
113.936
109.78
105.624
101.469
97.3128
93.157
89.0012
84.8453
80.6895
76.5337
72.378
68.2222
64.0665
59.9109
55.7554
51.6001
47.445
43.2903
39.1361
34.9829
30.8308
26.6806
22.5329
18.3886
14.2489
10.1114
5.99167
1.88587
422.809
413.819
409.604
404.239
399.553
394.753
390.15
385.602
381.144
376.74
372.387
368.072
363.789
359.531
355.294
351.073
346.865
342.668
338.479
334.298
330.121
325.949
321.781
317.615
313.452
309.29
305.129
300.97
296.811
292.653
288.496
284.338
280.182
276.025
271.869
267.712
263.556
259.4
255.244
251.088
246.932
242.776
238.62
234.464
230.308
226.152
221.997
217.841
213.685
209.529
205.373
201.217
197.061
192.905
188.75
184.594
180.438
176.282
172.126
167.97
163.815
159.659
155.503
151.347
147.191
143.035
138.88
134.724
130.568
126.412
122.256
118.1
113.945
109.789
105.633
101.477
97.3212
93.1654
89.0096
84.8538
80.6979
76.5421
72.3864
68.2306
64.0749
59.9193
55.7638
51.6085
47.4534
43.2987
39.1445
34.9912
30.8392
26.6889
22.5413
18.3969
14.2574
10.1201
5.99928
1.89068
422.471
413.929
409.668
404.286
399.596
394.793
390.19
385.64
381.182
376.778
372.425
368.11
363.827
359.568
355.331
351.11
346.902
342.705
338.516
334.334
330.158
325.986
321.817
317.652
313.488
309.326
305.166
301.006
296.847
292.689
288.532
284.375
280.218
276.061
271.905
267.749
263.592
259.436
255.28
251.124
246.968
242.812
238.656
234.501
230.345
226.189
222.033
217.877
213.721
209.565
205.409
201.254
197.098
192.942
188.786
184.63
180.474
176.318
172.163
168.007
163.851
159.695
155.539
151.383
147.228
143.072
138.916
134.76
130.604
126.448
122.293
118.137
113.981
109.825
105.669
101.513
97.3576
93.2018
89.046
84.8902
80.7343
76.5785
72.4228
68.267
64.1113
59.9557
55.8002
51.6449
47.4898
43.3351
39.1809
35.0276
30.8755
26.7252
22.5776
18.4333
14.2938
10.1564
6.03465
1.92171
422.166
414.025
409.735
404.335
399.641
394.833
390.231
385.68
381.223
376.818
372.465
368.149
363.866
359.607
355.37
351.148
346.94
342.743
338.555
334.373
330.196
326.024
321.856
317.69
313.526
309.365
305.204
301.045
296.886
292.728
288.57
284.413
280.256
276.1
271.943
267.787
263.631
259.475
255.319
251.163
247.007
242.851
238.695
234.539
230.383
226.227
222.071
217.915
213.76
209.604
205.448
201.292
197.136
192.98
188.824
184.669
180.513
176.357
172.201
168.045
163.889
159.733
155.578
151.422
147.266
143.11
138.954
134.798
130.643
126.487
122.331
118.175
114.019
109.863
105.708
101.552
97.396
93.2402
89.0844
84.9285
80.7727
76.6169
72.4611
68.3054
64.1497
59.9941
55.8386
51.6832
47.5281
43.3734
39.2193
35.0659
30.9138
26.7636
22.6159
18.4716
14.3322
10.1952
6.07236
1.95498
421.894
414.102
409.798
404.383
399.684
394.872
390.27
385.719
381.261
376.856
372.502
368.187
363.903
359.645
355.407
351.185
346.977
342.78
338.591
334.409
330.233
326.061
321.893
317.727
313.563
309.401
305.241
301.081
296.923
292.765
288.607
284.45
280.293
276.136
271.98
267.824
263.668
259.511
255.355
251.199
247.043
242.887
238.731
234.576
230.42
226.264
222.108
217.952
213.796
209.64
205.484
201.329
197.173
193.017
188.861
184.705
180.549
176.393
172.238
168.082
163.926
159.77
155.614
151.458
147.303
143.147
138.991
134.835
130.679
126.523
122.368
118.212
114.056
109.9
105.744
101.588
97.4327
93.2768
89.121
84.9652
80.8094
76.6536
72.4978
68.3421
64.1864
60.0307
55.8752
51.7199
47.5648
43.4101
39.2559
35.1026
30.9505
26.8002
22.6525
18.5083
14.3689
10.2325
6.1082
1.98639
421.659
414.166
409.858
404.429
399.724
394.908
390.306
385.755
381.297
376.891
372.538
368.222
363.938
359.68
355.442
351.22
347.012
342.815
338.626
334.444
330.268
326.096
321.927
317.761
313.598
309.436
305.275
301.116
296.957
292.799
288.642
284.485
280.328
276.171
272.015
267.858
263.702
259.546
255.39
251.234
247.078
242.922
238.766
234.61
230.454
226.298
222.143
217.987
213.831
209.675
205.519
201.363
197.207
193.052
188.896
184.74
180.584
176.428
172.272
168.116
163.961
159.805
155.649
151.493
147.337
143.181
139.026
134.87
130.714
126.558
122.402
118.246
114.091
109.935
105.779
101.623
97.4673
93.3115
89.1557
84.9999
80.8441
76.6883
72.5325
68.3767
64.221
60.0654
55.9099
51.7546
47.5995
43.4447
39.2906
35.1372
30.9851
26.8348
22.6871
18.5429
14.4037
10.2678
6.14197
2.0158
421.453
414.217
409.912
404.473
399.761
394.942
390.34
385.788
381.33
376.925
372.571
368.255
363.971
359.712
355.474
351.253
347.045
342.847
338.659
334.477
330.3
326.128
321.96
317.794
313.63
309.468
305.308
301.148
296.99
292.831
288.674
284.517
280.36
276.203
272.047
267.891
263.734
259.578
255.422
251.266
247.11
242.954
238.798
234.643
230.487
226.331
222.175
218.019
213.863
209.707
205.551
201.396
197.24
193.084
188.928
184.772
180.616
176.46
172.305
168.149
163.993
159.837
155.681
151.525
147.37
143.214
139.058
134.902
130.746
126.59
122.435
118.279
114.123
109.967
105.811
101.655
97.4996
93.3438
89.188
85.0322
80.8764
76.7206
72.5648
68.409
64.2533
60.0977
55.9422
51.7869
47.6318
43.477
39.3229
35.1695
31.0174
26.8671
22.7193
18.5753
14.436
10.3008
6.17343
2.04304
421.274
414.259
409.962
404.513
399.794
394.972
390.371
385.819
381.361
376.955
372.601
368.285
364.001
359.742
355.504
351.283
347.075
342.877
338.688
334.506
330.33
326.158
321.989
317.823
313.66
309.498
305.337
301.178
297.019
292.861
288.704
284.546
280.39
276.233
272.077
267.92
263.764
259.608
255.452
251.296
247.14
242.984
238.828
234.672
230.516
226.36
222.205
218.049
213.893
209.737
205.581
201.425
197.269
193.114
188.958
184.802
180.646
176.49
172.334
168.178
164.023
159.867
155.711
151.555
147.399
143.243
139.088
134.932
130.776
126.62
122.464
118.308
114.153
109.997
105.841
101.685
97.5293
93.3735
89.2177
85.0619
80.906
76.7502
72.5945
68.4387
64.283
60.1274
55.9719
51.8165
47.6614
43.5067
39.3525
35.1992
31.047
26.8967
22.749
18.6049
14.4657
10.3313
6.20237
2.06798
421.117
414.293
410.008
404.55
399.825
395
390.399
385.846
381.389
376.983
372.629
368.313
364.029
359.77
355.532
351.31
347.102
342.904
338.715
334.533
330.357
326.185
322.016
317.85
313.687
309.525
305.364
301.205
297.046
292.888
288.731
284.573
280.417
276.26
272.104
267.947
263.791
259.635
255.479
251.323
247.167
243.011
238.855
234.699
230.543
226.387
222.232
218.076
213.92
209.764
205.608
201.452
197.296
193.141
188.985
184.829
180.673
176.517
172.361
168.205
164.05
159.894
155.738
151.582
147.426
143.27
139.115
134.959
130.803
126.647
122.491
118.335
114.18
110.024
105.868
101.712
97.5563
93.4005
89.2447
85.0888
80.933
76.7772
72.6215
68.4657
64.31
60.1544
55.9989
51.8435
47.6884
43.5337
39.3795
35.2261
31.074
26.9237
22.7759
18.632
14.4928
10.3592
6.22871
2.09057
420.981
414.319
410.048
404.584
399.852
395.025
390.424
385.871
381.413
377.007
372.654
368.337
364.053
359.794
355.556
351.334
347.126
342.929
338.74
334.558
330.381
326.209
322.041
317.875
313.711
309.549
305.389
301.229
297.07
292.912
288.755
284.598
280.441
276.284
272.128
267.972
263.815
259.659
255.503
251.347
247.191
243.035
238.879
234.723
230.568
226.412
222.256
218.1
213.944
209.788
205.632
201.477
197.321
193.165
189.009
184.853
180.697
176.541
172.386
168.23
164.074
159.918
155.762
151.606
147.451
143.295
139.139
134.983
130.827
126.671
122.516
118.36
114.204
110.048
105.892
101.736
97.5806
93.4248
89.2689
85.1131
80.9573
76.8015
72.6457
68.49
64.3343
60.1787
56.0232
51.8678
47.7127
43.558
39.4038
35.2504
31.0983
26.9479
22.8002
18.6563
14.5172
10.3843
6.25244
2.11085
420.864
414.34
410.084
404.614
399.877
395.047
390.446
385.893
381.436
377.029
372.675
368.359
364.075
359.816
355.578
351.356
347.148
342.95
338.761
334.579
330.403
326.231
322.062
317.896
313.733
309.571
305.41
301.251
297.092
292.934
288.776
284.619
280.462
276.306
272.149
267.993
263.837
259.681
255.525
251.369
247.213
243.057
238.901
234.745
230.589
226.433
222.277
218.122
213.966
209.81
205.654
201.498
197.342
193.186
189.031
184.875
180.719
176.563
172.407
168.251
164.095
159.94
155.784
151.628
147.472
143.316
139.16
135.005
130.849
126.693
122.537
118.381
114.225
110.07
105.914
101.758
97.6022
93.4464
89.2905
85.1347
80.9789
76.8231
72.6673
68.5116
64.3559
60.2003
56.0448
51.8894
47.7343
43.5796
39.4254
35.272
31.1198
26.9695
22.8217
18.6779
14.5388
10.4068
6.27356
2.12883
420.765
414.357
410.114
404.641
399.898
395.066
390.465
385.912
381.455
377.049
372.695
368.378
364.094
359.835
355.597
351.375
347.167
342.969
338.78
334.598
330.422
326.25
322.081
317.915
313.752
309.59
305.429
301.27
297.111
292.953
288.795
284.638
280.481
276.325
272.168
268.012
263.856
259.7
255.544
251.388
247.232
243.076
238.92
234.764
230.608
226.452
222.296
218.14
213.985
209.829
205.673
201.517
197.361
193.205
189.049
184.894
180.738
176.582
172.426
168.27
164.114
159.958
155.803
151.647
147.491
143.335
139.179
135.023
130.868
126.712
122.556
118.4
114.244
110.089
105.933
101.777
97.6211
93.4652
89.3094
85.1536
80.9978
76.842
72.6862
68.5305
64.3748
60.2192
56.0637
51.9083
47.7532
43.5985
39.4443
35.2909
31.1387
26.9884
22.8406
18.6968
14.5578
10.4265
6.29206
2.14453
420.682
414.37
410.141
404.664
399.916
395.082
390.482
385.929
381.471
377.065
372.711
368.395
364.11
359.851
355.613
351.391
347.183
342.986
338.797
334.615
330.438
326.266
322.097
317.931
313.768
309.606
305.445
301.286
297.127
292.969
288.812
284.654
280.498
276.341
272.185
268.028
263.872
259.716
255.56
251.404
247.248
243.092
238.936
234.78
230.624
226.468
222.313
218.157
214.001
209.845
205.689
201.533
197.377
193.221
189.066
184.91
180.754
176.598
172.442
168.286
164.131
159.975
155.819
151.663
147.507
143.351
139.196
135.04
130.884
126.728
122.572
118.416
114.261
110.105
105.949
101.793
97.6373
93.4814
89.3256
85.1698
81.014
76.8582
72.7024
68.5467
64.391
60.2354
56.0799
51.9245
47.7694
43.6147
39.4605
35.3071
31.1549
27.0046
22.8567
18.7131
14.574
10.4434
6.30793
2.15796
420.614
414.379
410.162
404.684
399.931
395.096
390.495
385.942
381.485
377.079
372.725
368.408
364.124
359.865
355.627
351.405
347.197
342.999
338.81
334.628
330.452
326.279
322.111
317.945
313.781
309.619
305.459
301.299
297.141
292.983
288.825
284.668
280.511
276.354
272.198
268.042
263.886
259.729
255.573
251.417
247.261
243.105
238.95
234.794
230.638
226.482
222.326
218.17
214.014
209.858
205.703
201.547
197.391
193.235
189.079
184.923
180.767
176.612
172.456
168.3
164.144
159.988
155.832
151.676
147.521
143.365
139.209
135.053
130.897
126.742
122.586
118.43
114.274
110.118
105.962
101.807
97.6508
93.4949
89.3391
85.1833
81.0275
76.8717
72.716
68.5602
64.4045
60.2489
56.0934
51.938
47.7829
43.6282
39.474
35.3206
31.1684
27.0181
22.8702
18.7266
14.5876
10.4575
6.32117
2.16915
420.561
414.387
410.18
404.699
399.943
395.106
390.506
385.953
381.496
377.09
372.736
368.419
364.135
359.876
355.638
351.416
347.208
343.01
338.821
334.639
330.462
326.29
322.122
317.956
313.792
309.63
305.47
301.31
297.151
292.993
288.836
284.679
280.522
276.365
272.209
268.053
263.896
259.74
255.584
251.428
247.272
243.116
238.96
234.804
230.649
226.493
222.337
218.181
214.025
209.869
205.713
201.557
197.402
193.246
189.09
184.934
180.778
176.622
172.466
168.311
164.155
159.999
155.843
151.687
147.531
143.376
139.22
135.064
130.908
126.752
122.596
118.441
114.285
110.129
105.973
101.817
97.6616
93.5057
89.3499
85.1941
81.0383
76.8825
72.7268
68.571
64.4153
60.2597
56.1042
51.9488
47.7937
43.639
39.4848
35.3314
31.1792
27.0288
22.881
18.7374
14.5984
10.4688
6.33177
2.17809
420.521
414.392
410.193
404.711
399.952
395.114
390.514
385.961
381.504
377.098
372.744
368.427
364.143
359.884
355.646
351.424
347.216
343.018
338.829
334.647
330.47
326.298
322.13
317.964
313.8
309.638
305.478
301.318
297.159
293.001
288.844
284.687
280.53
276.373
272.217
268.061
263.904
259.748
255.592
251.436
247.28
243.124
238.968
234.813
230.657
226.501
222.345
218.189
214.033
209.877
205.721
201.566
197.41
193.254
189.098
184.942
180.786
176.63
172.475
168.319
164.163
160.007
155.851
151.695
147.54
143.384
139.228
135.072
130.916
126.76
122.605
118.449
114.293
110.137
105.981
101.825
97.6697
93.5139
89.358
85.2022
81.0464
76.8906
72.7349
68.5791
64.4234
60.2678
56.1123
51.957
47.8018
43.6471
39.4929
35.3395
31.1873
27.0369
22.8891
18.7456
14.6065
10.4773
6.33972
2.18478
420.495
414.395
410.201
404.719
399.958
395.12
390.52
385.967
381.51
377.103
372.749
368.433
364.149
359.89
355.651
351.429
347.221
343.023
338.834
334.652
330.476
326.304
322.135
317.969
313.805
309.644
305.483
301.323
297.165
293.007
288.849
284.692
280.535
276.379
272.222
268.066
263.91
259.754
255.598
251.442
247.286
243.13
238.974
234.818
230.662
226.506
222.35
218.194
214.039
209.883
205.727
201.571
197.415
193.259
189.103
184.948
180.792
176.636
172.48
168.324
164.168
160.012
155.857
151.701
147.545
143.389
139.233
135.077
130.922
126.766
122.61
118.454
114.298
110.143
105.987
101.831
97.6751
93.5193
89.3634
85.2076
81.0518
76.896
72.7403
68.5845
64.4289
60.2732
56.1177
51.9624
47.8073
43.6525
39.4983
35.3449
31.1927
27.0423
22.8945
18.751
14.612
10.483
6.34502
2.18925
420.482
414.397
410.205
404.723
399.961
395.123
390.522
385.969
381.512
377.106
372.752
368.436
364.151
359.892
355.654
351.432
347.224
343.026
338.837
334.655
330.479
326.306
322.138
317.972
313.808
309.646
305.486
301.326
297.168
293.01
288.852
284.695
280.538
276.381
272.225
268.069
263.913
259.756
255.6
251.444
247.288
243.132
238.977
234.821
230.665
226.509
222.353
218.197
214.041
209.885
205.73
201.574
197.418
193.262
189.106
184.95
180.794
176.639
172.483
168.327
164.171
160.015
155.859
151.703
147.548
143.392
139.236
135.08
130.924
126.769
122.613
118.457
114.301
110.145
105.989
101.834
97.6778
93.522
89.3661
85.2103
81.0545
76.8988
72.743
68.5873
64.4316
60.276
56.1204
51.9651
47.81
43.6552
39.501
35.3476
31.1954
27.045
22.8972
18.7537
14.6147
10.4859
6.34768
2.19148
420.482
414.397
410.205
404.723
399.961
395.123
390.522
385.969
381.512
377.106
372.752
368.436
364.151
359.892
355.654
351.432
347.224
343.026
338.837
334.655
330.479
326.306
322.138
317.972
313.808
309.646
305.486
301.326
297.168
293.01
288.852
284.695
280.538
276.381
272.225
268.069
263.913
259.756
255.6
251.444
247.288
243.132
238.977
234.821
230.665
226.509
222.353
218.197
214.041
209.885
205.73
201.574
197.418
193.262
189.106
184.95
180.794
176.638
172.483
168.327
164.171
160.015
155.859
151.703
147.548
143.392
139.236
135.08
130.924
126.768
122.613
118.457
114.301
110.145
105.989
101.834
97.6778
93.522
89.3662
85.2104
81.0546
76.8988
72.743
68.5873
64.4316
60.276
56.1205
51.9651
47.81
43.6552
39.501
35.3476
31.1954
27.0451
22.8972
18.7537
14.6147
10.4859
6.34768
2.19148
420.495
414.395
410.201
404.719
399.958
395.12
390.52
385.967
381.51
377.103
372.749
368.433
364.149
359.89
355.651
351.429
347.221
343.023
338.834
334.652
330.476
326.304
322.135
317.969
313.805
309.644
305.483
301.323
297.165
293.007
288.849
284.692
280.535
276.379
272.222
268.066
263.91
259.754
255.598
251.442
247.286
243.13
238.974
234.818
230.662
226.506
222.35
218.194
214.039
209.883
205.727
201.571
197.415
193.259
189.103
184.948
180.792
176.636
172.48
168.324
164.168
160.012
155.857
151.701
147.545
143.389
139.233
135.077
130.922
126.766
122.61
118.454
114.298
110.143
105.987
101.831
97.6751
93.5193
89.3635
85.2077
81.0519
76.8961
72.7403
68.5846
64.4289
60.2733
56.1178
51.9624
47.8073
43.6525
39.4983
35.3449
31.1927
27.0424
22.8945
18.751
14.612
10.483
6.34503
2.18925
420.521
414.392
410.193
404.711
399.952
395.114
390.514
385.961
381.504
377.098
372.744
368.427
364.143
359.884
355.646
351.424
347.216
343.018
338.829
334.647
330.47
326.298
322.13
317.964
313.8
309.638
305.478
301.318
297.159
293.001
288.844
284.687
280.53
276.373
272.217
268.061
263.904
259.748
255.592
251.436
247.28
243.124
238.968
234.813
230.657
226.501
222.345
218.189
214.033
209.877
205.721
201.566
197.41
193.254
189.098
184.942
180.786
176.63
172.475
168.319
164.163
160.007
155.851
151.695
147.54
143.384
139.228
135.072
130.916
126.76
122.605
118.449
114.293
110.137
105.981
101.826
97.6697
93.5139
89.3581
85.2023
81.0465
76.8907
72.7349
68.5792
64.4235
60.2679
56.1124
51.957
47.8019
43.6472
39.4929
35.3395
31.1873
27.037
22.8891
18.7456
14.6065
10.4773
6.33972
2.18479
420.561
414.387
410.18
404.699
399.943
395.106
390.506
385.953
381.496
377.09
372.736
368.419
364.135
359.876
355.638
351.416
347.208
343.01
338.821
334.639
330.462
326.29
322.121
317.956
313.792
309.63
305.469
301.31
297.151
292.993
288.836
284.679
280.522
276.365
272.209
268.053
263.896
259.74
255.584
251.428
247.272
243.116
238.96
234.804
230.649
226.493
222.337
218.181
214.025
209.869
205.713
201.557
197.402
193.246
189.09
184.934
180.778
176.622
172.466
168.311
164.155
159.999
155.843
151.687
147.531
143.376
139.22
135.064
130.908
126.752
122.596
118.441
114.285
110.129
105.973
101.817
97.6616
93.5058
89.35
85.1942
81.0384
76.8826
72.7269
68.5711
64.4154
60.2598
56.1043
51.949
47.7938
43.6391
39.4849
35.3315
31.1792
27.0289
22.881
18.7375
14.5984
10.4688
6.33177
2.17809
420.614
414.379
410.162
404.684
399.931
395.096
390.495
385.942
381.485
377.079
372.725
368.408
364.124
359.865
355.627
351.405
347.197
342.999
338.81
334.628
330.451
326.279
322.111
317.945
313.781
309.619
305.459
301.299
297.141
292.983
288.825
284.668
280.511
276.354
272.198
268.042
263.886
259.729
255.573
251.417
247.261
243.105
238.95
234.794
230.638
226.482
222.326
218.17
214.014
209.858
205.703
201.547
197.391
193.235
189.079
184.923
180.767
176.612
172.456
168.3
164.144
159.988
155.832
151.676
147.521
143.365
139.209
135.053
130.897
126.742
122.586
118.43
114.274
110.118
105.962
101.807
97.6508
93.495
89.3392
85.1834
81.0276
76.8718
72.7161
68.5603
64.4047
60.249
56.0935
51.9382
47.7831
43.6283
39.4741
35.3207
31.1685
27.0181
22.8703
18.7266
14.5876
10.4575
6.32118
2.16915
420.682
414.37
410.141
404.664
399.916
395.082
390.482
385.929
381.471
377.065
372.711
368.395
364.11
359.851
355.613
351.391
347.183
342.986
338.797
334.615
330.438
326.266
322.097
317.931
313.768
309.606
305.445
301.286
297.127
292.969
288.812
284.654
280.498
276.341
272.185
268.028
263.872
259.716
255.56
251.404
247.248
243.092
238.936
234.78
230.624
226.468
222.312
218.157
214.001
209.845
205.689
201.533
197.377
193.221
189.066
184.91
180.754
176.598
172.442
168.286
164.13
159.975
155.819
151.663
147.507
143.351
139.195
135.04
130.884
126.728
122.572
118.416
114.261
110.105
105.949
101.793
97.6373
93.4815
89.3257
85.1699
81.0141
76.8584
72.7026
68.5469
64.3912
60.2356
56.0801
51.9247
47.7696
43.6148
39.4606
35.3072
31.155
27.0046
22.8568
18.7131
14.574
10.4434
6.30794
2.15797
420.765
414.357
410.114
404.641
399.898
395.066
390.465
385.912
381.455
377.049
372.695
368.378
364.094
359.835
355.597
351.375
347.167
342.969
338.78
334.598
330.422
326.25
322.081
317.915
313.751
309.59
305.429
301.27
297.111
292.953
288.795
284.638
280.481
276.325
272.168
268.012
263.856
259.7
255.544
251.388
247.232
243.076
238.92
234.764
230.608
226.452
222.296
218.14
213.985
209.829
205.673
201.517
197.361
193.205
189.049
184.894
180.738
176.582
172.426
168.27
164.114
159.958
155.803
151.647
147.491
143.335
139.179
135.023
130.868
126.712
122.556
118.4
114.244
110.089
105.933
101.777
97.6211
93.4653
89.3095
85.1537
80.998
76.8422
72.6864
68.5307
64.375
60.2194
56.0639
51.9085
47.7534
43.5986
39.4444
35.291
31.1388
26.9885
22.8406
18.6969
14.5578
10.4265
6.29207
2.14453
420.864
414.34
410.084
404.615
399.877
395.047
390.446
385.893
381.436
377.029
372.675
368.359
364.075
359.816
355.578
351.356
347.148
342.95
338.761
334.579
330.403
326.231
322.062
317.896
313.733
309.571
305.41
301.251
297.092
292.934
288.776
284.619
280.462
276.306
272.149
267.993
263.837
259.681
255.525
251.369
247.213
243.057
238.901
234.745
230.589
226.433
222.277
218.122
213.966
209.81
205.654
201.498
197.342
193.186
189.03
184.875
180.719
176.563
172.407
168.251
164.095
159.94
155.784
151.628
147.472
143.316
139.16
135.005
130.849
126.693
122.537
118.381
114.225
110.07
105.914
101.758
97.6023
93.4465
89.2907
85.1349
80.9791
76.8233
72.6675
68.5118
64.3561
60.2005
56.045
51.8896
47.7345
43.5798
39.4256
35.2722
31.12
26.9696
22.8218
18.678
14.5388
10.4068
6.27357
2.12883
420.981
414.319
410.048
404.584
399.852
395.025
390.424
385.871
381.413
377.007
372.653
368.337
364.053
359.794
355.556
351.334
347.126
342.929
338.74
334.558
330.381
326.209
322.04
317.875
313.711
309.549
305.389
301.229
297.07
292.912
288.755
284.598
280.441
276.284
272.128
267.972
263.815
259.659
255.503
251.347
247.191
243.035
238.879
234.723
230.568
226.412
222.256
218.1
213.944
209.788
205.632
201.476
197.321
193.165
189.009
184.853
180.697
176.541
172.385
168.23
164.074
159.918
155.762
151.606
147.45
143.295
139.139
134.983
130.827
126.671
122.516
118.36
114.204
110.048
105.892
101.736
97.5807
93.4249
89.2691
85.1133
80.9575
76.8017
72.646
68.4902
64.3346
60.1789
56.0234
51.8681
47.713
43.5582
39.404
35.2506
31.0984
26.948
22.8002
18.6563
14.5172
10.3844
6.25245
2.11085
421.117
414.293
410.008
404.55
399.825
395
390.399
385.846
381.389
376.983
372.629
368.312
364.029
359.77
355.532
351.31
347.102
342.904
338.715
334.533
330.357
326.185
322.016
317.85
313.687
309.525
305.364
301.205
297.046
292.888
288.731
284.573
280.417
276.26
272.104
267.947
263.791
259.635
255.479
251.323
247.167
243.011
238.855
234.699
230.543
226.387
222.232
218.076
213.92
209.764
205.608
201.452
197.296
193.14
188.985
184.829
180.673
176.517
172.361
168.205
164.05
159.894
155.738
151.582
147.426
143.27
139.115
134.959
130.803
126.647
122.491
118.335
114.18
110.024
105.868
101.712
97.5564
93.4006
89.2448
85.089
80.9332
76.7774
72.6217
68.466
64.3103
60.1547
55.9992
51.8438
47.6887
43.5339
39.3797
35.2263
31.0741
26.9238
22.776
18.632
14.4928
10.3592
6.22872
2.09057
421.274
414.259
409.963
404.513
399.794
394.972
390.371
385.819
381.361
376.955
372.601
368.285
364.001
359.742
355.504
351.283
347.075
342.877
338.688
334.506
330.33
326.158
321.989
317.823
313.66
309.498
305.337
301.178
297.019
292.861
288.704
284.546
280.39
276.233
272.077
267.92
263.764
259.608
255.452
251.296
247.14
242.984
238.828
234.672
230.516
226.36
222.205
218.049
213.893
209.737
205.581
201.425
197.269
193.113
188.958
184.802
180.646
176.49
172.334
168.178
164.023
159.867
155.711
151.555
147.399
143.243
139.088
134.932
130.776
126.62
122.464
118.308
114.153
109.997
105.841
101.685
97.5294
93.3736
89.2178
85.062
80.9063
76.7505
72.5947
68.439
64.2833
60.1277
55.9722
51.8168
47.6617
43.507
39.3528
35.1994
31.0472
26.8968
22.7491
18.605
14.4658
10.3314
6.20238
2.06798
421.454
414.217
409.912
404.473
399.761
394.942
390.34
385.788
381.33
376.925
372.571
368.255
363.971
359.712
355.474
351.253
347.045
342.847
338.659
334.477
330.3
326.128
321.96
317.794
313.63
309.468
305.308
301.148
296.989
292.831
288.674
284.517
280.36
276.203
272.047
267.891
263.735
259.578
255.422
251.266
247.11
242.954
238.798
234.643
230.487
226.331
222.175
218.019
213.863
209.707
205.551
201.396
197.24
193.084
188.928
184.772
180.616
176.46
172.305
168.149
163.993
159.837
155.681
151.525
147.37
143.214
139.058
134.902
130.746
126.59
122.435
118.279
114.123
109.967
105.811
101.656
97.4998
93.344
89.1882
85.0324
80.8766
76.7208
72.5651
68.4093
64.2537
60.0981
55.9425
51.7872
47.6321
43.4773
39.3231
35.1697
31.0175
26.8672
22.7194
18.5753
14.4361
10.3009
6.17344
2.04304
421.659
414.166
409.858
404.429
399.724
394.908
390.306
385.755
381.297
376.891
372.538
368.222
363.938
359.68
355.442
351.22
347.012
342.815
338.626
334.444
330.268
326.096
321.927
317.761
313.598
309.436
305.275
301.116
296.957
292.799
288.642
284.485
280.328
276.171
272.015
267.858
263.702
259.546
255.39
251.234
247.078
242.922
238.766
234.61
230.454
226.298
222.143
217.987
213.831
209.675
205.519
201.363
197.207
193.052
188.896
184.74
180.584
176.428
172.272
168.116
163.961
159.805
155.649
151.493
147.337
143.181
139.026
134.87
130.714
126.558
122.402
118.247
114.091
109.935
105.779
101.623
97.4675
93.3117
89.1559
85.0001
80.8443
76.6885
72.5328
68.3771
64.2214
60.0658
55.9103
51.7549
47.5998
43.445
39.2908
35.1375
30.9853
26.8349
22.6872
18.543
14.4037
10.2678
6.14198
2.0158
421.894
414.102
409.798
404.383
399.684
394.872
390.27
385.719
381.261
376.856
372.502
368.187
363.903
359.645
355.407
351.185
346.977
342.78
338.591
334.409
330.233
326.061
321.892
317.727
313.563
309.401
305.241
301.081
296.922
292.764
288.607
284.45
280.293
276.136
271.98
267.824
263.668
259.511
255.355
251.199
247.043
242.887
238.732
234.576
230.42
226.264
222.108
217.952
213.796
209.64
205.484
201.329
197.173
193.017
188.861
184.705
180.549
176.393
172.238
168.082
163.926
159.77
155.614
151.458
147.303
143.147
138.991
134.835
130.679
126.523
122.368
118.212
114.056
109.9
105.744
101.589
97.4328
93.277
89.1212
84.9654
80.8096
76.6539
72.4981
68.3424
64.1867
60.0311
55.8756
51.7202
47.5651
43.4104
39.2562
35.1028
30.9507
26.8003
22.6526
18.5083
14.369
10.2325
6.10821
1.98639
422.166
414.025
409.735
404.335
399.641
394.833
390.231
385.68
381.222
376.818
372.464
368.149
363.866
359.607
355.37
351.148
346.94
342.743
338.555
334.373
330.196
326.024
321.856
317.69
313.526
309.364
305.204
301.044
296.886
292.728
288.57
284.413
280.256
276.1
271.943
267.787
263.631
259.475
255.319
251.163
247.007
242.851
238.695
234.539
230.383
226.227
222.071
217.915
213.759
209.604
205.448
201.292
197.136
192.98
188.824
184.668
180.513
176.357
172.201
168.045
163.889
159.733
155.578
151.422
147.266
143.11
138.954
134.798
130.643
126.487
122.331
118.175
114.019
109.864
105.708
101.552
97.3961
93.2403
89.0846
84.9288
80.773
76.6172
72.4615
68.3057
64.1501
59.9945
55.8389
51.6836
47.5285
43.3737
39.2196
35.0662
30.914
26.7637
22.616
18.4717
14.3322
10.1952
6.07237
1.95498
422.471
413.93
409.668
404.286
399.596
394.793
390.19
385.64
381.182
376.778
372.425
368.11
363.826
359.568
355.331
351.11
346.902
342.705
338.516
334.334
330.158
325.986
321.817
317.652
313.488
309.326
305.166
301.006
296.847
292.689
288.532
284.375
280.218
276.061
271.905
267.749
263.593
259.436
255.28
251.124
246.968
242.812
238.656
234.501
230.345
226.189
222.033
217.877
213.721
209.565
205.409
201.254
197.098
192.942
188.786
184.63
180.474
176.318
172.163
168.007
163.851
159.695
155.539
151.383
147.228
143.072
138.916
134.76
130.604
126.448
122.293
118.137
113.981
109.825
105.669
101.514
97.3578
93.202
89.0462
84.8904
80.7346
76.5789
72.4231
68.2674
64.1117
59.9561
55.8006
51.6452
47.4901
43.3354
39.1812
35.0278
30.8757
26.7254
22.5777
18.4334
14.2939
10.1564
6.03466
1.92172
422.809
413.819
409.604
404.24
399.553
394.753
390.15
385.602
381.144
376.74
372.387
368.072
363.789
359.531
355.294
351.073
346.865
342.668
338.479
334.298
330.121
325.949
321.781
317.615
313.452
309.29
305.129
300.97
296.811
292.653
288.495
284.338
280.182
276.025
271.869
267.712
263.556
259.4
255.244
251.088
246.932
242.776
238.62
234.464
230.308
226.152
221.996
217.841
213.685
209.529
205.373
201.217
197.061
192.905
188.75
184.594
180.438
176.282
172.126
167.97
163.814
159.659
155.503
151.347
147.191
143.035
138.879
134.724
130.568
126.412
122.256
118.1
113.945
109.789
105.633
101.477
97.3214
93.1656
89.0098
84.854
80.6982
76.5425
72.3867
68.231
64.0753
59.9197
55.7642
51.6089
47.4537
43.299
39.1448
34.9915
30.8394
26.6891
22.5414
18.397
14.2574
10.1202
5.99929
1.89068
423.328
413.727
409.567
404.222
399.536
394.741
390.138
385.59
381.133
376.73
372.377
368.063
363.78
359.522
355.285
351.064
346.856
342.659
338.471