/*--------------------------------*- C++ -*----------------------------------*\
  =========                 |
  \\      /  F ield         | OpenFOAM: The Open Source CFD Toolbox
   \\    /   O peration     | Website:  https://openfoam.org
    \\  /    A nd           | Version:  7
     \\/     M anipulation  |
\*---------------------------------------------------------------------------*/
FoamFile
{
    version     2.0;
    format      ascii;
    class       volScalarField;
    location    "1.5";
    object      pB;
}
// * * * * * * * * * * * * * * * * * * * * * * * * * * * * * * * * * * * * * //

dimensions      [1 1 -3 0 0 -1 0];

internalField   nonuniform List<scalar> 
4000
(
27.9036
64.0794
83.723
90.7576
90.3052
84.9608
77.1523
68.2736
59.2829
50.7088
42.8519
35.8426
29.7145
24.4383
19.9514
16.174
13.0208
10.4075
8.2553
6.49275
5.05646
3.89137
2.95019
2.19285
1.58564
1.10043
0.71402
0.40718
0.164283
-0.0274617
-0.178439
-0.296951
-0.389811
-0.462334
-0.51888
-0.562863
-0.596972
-0.623415
-0.643822
-0.659572
-0.67169
-0.680977
-0.688115
-0.693545
-0.697701
-0.700855
-0.703247
-0.70507
-0.706436
-0.707479
-0.708267
-0.708856
-0.709316
-0.709647
-0.709906
-0.710092
-0.710221
-0.710313
-0.710364
-0.71039
-0.710393
-0.710372
-0.710342
-0.710284
-0.710223
-0.710134
-0.710029
-0.7099
-0.709735
-0.709525
-0.709254
-0.708898
-0.708434
-0.707813
-0.706995
-0.705901
-0.704448
-0.702508
-0.699929
-0.696501
-0.69196
-0.685959
-0.678065
-0.667718
-0.654246
-0.636816
-0.614465
-0.586107
-0.55061
-0.506943
-0.45447
-0.393416
-0.325728
-0.256315
-0.195011
-0.158483
-0.170019
-0.248622
-0.366159
-0.363128
30.0654
64.1083
83.0012
89.9661
89.5436
84.2963
76.583
67.7957
58.8853
50.3819
42.5861
35.6294
29.5458
24.3072
19.8518
16.1004
12.9687
10.373
8.23514
6.4842
5.05726
3.89967
2.96448
2.21189
1.60844
1.1262
0.742118
0.437102
0.195623
0.00498567
-0.145139
-0.262989
-0.355342
-0.427475
-0.483722
-0.527477
-0.561412
-0.587722
-0.608029
-0.623701
-0.635764
-0.645006
-0.652112
-0.657517
-0.661656
-0.664797
-0.667179
-0.668994
-0.670356
-0.671393
-0.672179
-0.672764
-0.673223
-0.67355
-0.673808
-0.673992
-0.674121
-0.674211
-0.674262
-0.674288
-0.674292
-0.67427
-0.674242
-0.674184
-0.674123
-0.674035
-0.673931
-0.673802
-0.673638
-0.673428
-0.673159
-0.672803
-0.672342
-0.671724
-0.670911
-0.669821
-0.668375
-0.666445
-0.66388
-0.66047
-0.655955
-0.649987
-0.642138
-0.631852
-0.618461
-0.60114
-0.578934
-0.550769
-0.515527
-0.472197
-0.420162
-0.359662
-0.292642
-0.223936
-0.163108
-0.126016
-0.133969
-0.201764
-0.29881
-0.289976
31.3887
63.995
81.9626
88.7542
88.3358
83.2059
75.6275
66.9783
58.1953
49.8077
42.1142
35.2469
29.2402
24.0671
19.6669
15.9618
12.8683
10.3042
8.19218
6.46225
5.05233
3.90845
2.98423
2.24041
1.64393
1.16721
0.787473
0.485877
0.247075
0.0585319
-0.0899671
-0.206553
-0.297929
-0.36931
-0.424976
-0.468287
-0.501881
-0.527929
-0.548038
-0.563556
-0.575506
-0.584659
-0.591701
-0.597056
-0.601158
-0.604272
-0.606632
-0.608432
-0.609783
-0.61081
-0.611591
-0.612168
-0.612622
-0.612945
-0.6132
-0.61338
-0.613508
-0.613597
-0.613648
-0.613672
-0.613678
-0.613654
-0.613628
-0.61357
-0.613511
-0.613424
-0.613321
-0.613192
-0.613031
-0.612822
-0.612556
-0.612202
-0.611746
-0.611133
-0.610328
-0.609249
-0.607818
-0.605908
-0.603369
-0.599995
-0.59553
-0.589627
-0.581866
-0.571696
-0.558459
-0.541341
-0.519402
-0.491585
-0.456796
-0.414047
-0.362744
-0.303137
-0.23713
-0.169387
-0.108974
-0.0704329
-0.0723006
-0.124259
-0.196053
-0.179226
31.4953
63.3864
80.4479
86.9879
86.5598
81.5748
74.1798
65.7245
57.1254
48.9069
41.3644
34.6296
28.7377
23.6626
19.3453
15.7096
12.6739
10.1574
8.08449
6.38644
5.00235
3.87932
2.97186
2.24142
1.65561
1.18734
0.81428
0.517948
0.283276
0.0979686
-0.0480098
-0.162636
-0.252491
-0.322698
-0.377457
-0.420071
-0.453129
-0.478765
-0.498562
-0.513838
-0.525608
-0.534622
-0.541559
-0.546834
-0.550877
-0.553948
-0.556275
-0.558048
-0.559383
-0.560394
-0.561164
-0.561731
-0.562177
-0.562494
-0.562744
-0.562919
-0.563044
-0.563131
-0.563181
-0.563204
-0.56321
-0.563186
-0.563161
-0.563105
-0.563047
-0.562962
-0.562862
-0.562734
-0.562574
-0.562368
-0.562106
-0.561757
-0.561308
-0.560703
-0.559911
-0.558849
-0.557441
-0.555562
-0.553066
-0.549748
-0.545359
-0.539557
-0.531932
-0.521941
-0.508941
-0.492134
-0.470601
-0.443309
-0.409198
-0.367308
-0.317074
-0.258742
-0.194142
-0.127658
-0.0676128
-0.0267429
-0.0201098
-0.0518214
-0.0943324
-0.0652927
30.7034
62.1594
78.4273
84.6775
84.2357
79.4198
72.253
64.0442
55.683
47.6851
40.3408
33.7807
28.0403
23.095
18.8876
15.3442
12.3852
9.93216
7.91129
6.25572
4.90614
3.81097
2.92592
2.21342
1.64191
1.185
0.82093
0.531689
0.302591
0.121655
-0.0209107
-0.132879
-0.220671
-0.289281
-0.342803
-0.384465
-0.416792
-0.441864
-0.461232
-0.476178
-0.487698
-0.49652
-0.503312
-0.508479
-0.512439
-0.515448
-0.517729
-0.519467
-0.520777
-0.521766
-0.522522
-0.523075
-0.52351
-0.523818
-0.524061
-0.524231
-0.524352
-0.524435
-0.524484
-0.524505
-0.524512
-0.524488
-0.524465
-0.52441
-0.524354
-0.524271
-0.524173
-0.524047
-0.523891
-0.523688
-0.523431
-0.523088
-0.522648
-0.522057
-0.521282
-0.520242
-0.518866
-0.517029
-0.514591
-0.511349
-0.507064
-0.5014
-0.493957
-0.484208
-0.471526
-0.455134
-0.434142
-0.407549
-0.374331
-0.333568
-0.284719
-0.228021
-0.165186
-0.100224
-0.0405183
0.00335292
0.0201537
0.01114
-0.000315701
0.0404997
29.3779
60.3233
75.8954
81.845
81.3932
76.7692
69.8722
61.9591
53.8874
46.1595
39.0589
32.7144
27.1612
22.3764
18.3051
14.876
12.0122
9.63787
7.68168
6.07894
4.77228
3.71183
2.85471
2.1646
1.61096
1.16826
0.815453
0.535106
0.313005
0.137561
-0.00070914
-0.109329
-0.194515
-0.261105
-0.313063
-0.353519
-0.384916
-0.409272
-0.428094
-0.442618
-0.45382
-0.462398
-0.469003
-0.47403
-0.477883
-0.480814
-0.483035
-0.484728
-0.486004
-0.486966
-0.487703
-0.488238
-0.48866
-0.488957
-0.48919
-0.489353
-0.489469
-0.489549
-0.489596
-0.489615
-0.489623
-0.489599
-0.489577
-0.489524
-0.48947
-0.48939
-0.489295
-0.489171
-0.489019
-0.48882
-0.488569
-0.488234
-0.487807
-0.48723
-0.486477
-0.485467
-0.48413
-0.482347
-0.479981
-0.476837
-0.472681
-0.46719
-0.459977
-0.45053
-0.438245
-0.422372
-0.402052
-0.376323
-0.344207
-0.304823
-0.25766
-0.202929
-0.142194
-0.0790106
-0.0196829
0.0275661
0.0553917
0.0698822
0.0894276
0.137781
27.7411
57.9337
72.8612
78.5113
78.0585
73.6487
67.0598
59.4887
51.7551
44.3444
37.5313
31.4413
26.1096
21.515
17.605
14.3114
11.5606
9.27976
7.40042
5.8605
4.60491
3.58578
2.76195
2.09855
1.56625
1.14053
0.801202
0.531508
0.317797
0.148944
0.0158358
-0.0887544
-0.1708
-0.234954
-0.285022
-0.324016
-0.354288
-0.377775
-0.395932
-0.409943
-0.420755
-0.429035
-0.435413
-0.440269
-0.443991
-0.446825
-0.448973
-0.450609
-0.451844
-0.452773
-0.453484
-0.454
-0.454404
-0.454688
-0.454911
-0.455066
-0.455176
-0.45525
-0.455295
-0.455312
-0.45532
-0.455296
-0.455275
-0.455225
-0.455173
-0.455096
-0.455004
-0.454884
-0.454736
-0.454542
-0.454299
-0.453974
-0.45356
-0.453003
-0.452276
-0.451302
-0.450012
-0.448294
-0.446015
-0.442987
-0.438987
-0.433702
-0.426764
-0.417679
-0.405869
-0.390612
-0.371092
-0.346388
-0.315573
-0.277811
-0.232615
-0.180165
-0.121846
-0.0607061
-0.00189334
0.0487825
0.0877188
0.125173
0.173894
0.224351
25.9202
55.0609
69.3452
74.6987
74.2562
70.0825
63.8375
56.6516
49.302
42.2532
35.7688
29.9706
24.8932
20.517
16.7924
13.6547
11.0339
8.86066
7.06982
5.60228
4.40558
3.43413
2.64873
2.01619
1.50856
1.10251
0.778788
0.521448
0.317477
0.156284
0.0291812
-0.0707143
-0.149097
-0.210405
-0.258261
-0.295544
-0.324494
-0.34696
-0.364333
-0.377741
-0.388092
-0.39602
-0.40213
-0.406783
-0.410351
-0.413069
-0.415129
-0.416698
-0.417884
-0.418773
-0.419455
-0.419947
-0.420331
-0.4206
-0.42081
-0.420956
-0.421058
-0.421128
-0.421169
-0.421184
-0.421191
-0.421168
-0.421149
-0.4211
-0.421051
-0.420977
-0.420889
-0.420773
-0.42063
-0.420442
-0.420208
-0.419895
-0.419497
-0.418962
-0.418266
-0.417332
-0.416099
-0.414455
-0.412277
-0.409385
-0.405566
-0.400522
-0.393901
-0.385235
-0.373972
-0.359429
-0.340831
-0.317307
-0.287981
-0.252069
-0.209106
-0.159231
-0.103634
-0.0448257
0.0132268
0.0670539
0.116477
0.175122
0.249558
0.297142
23.9906
51.7772
65.3781
70.4333
70.0126
66.0962
60.2283
53.4677
46.5449
39.8999
33.7835
28.3123
23.52
19.389
15.8728
12.9103
10.4356
8.38337
6.69212
5.30606
4.17567
3.25795
2.51589
1.91816
1.43839
1.05456
0.748489
0.505133
0.312199
0.159696
0.0394135
-0.0551443
-0.129358
-0.187421
-0.232753
-0.268081
-0.295518
-0.316814
-0.333288
-0.346002
-0.355823
-0.363346
-0.369147
-0.373565
-0.376953
-0.379538
-0.381496
-0.382988
-0.384115
-0.384959
-0.385606
-0.38607
-0.386433
-0.386685
-0.38688
-0.387016
-0.387109
-0.387173
-0.38721
-0.387223
-0.387229
-0.387206
-0.387188
-0.387142
-0.387095
-0.387025
-0.386941
-0.386829
-0.386691
-0.386512
-0.386287
-0.385987
-0.385608
-0.385099
-0.384436
-0.38355
-0.38238
-0.380821
-0.378759
-0.37602
-0.372406
-0.367634
-0.361372
-0.353179
-0.342536
-0.328797
-0.311237
-0.289038
-0.261381
-0.227531
-0.18705
-0.140029
-0.0874516
-0.0312895
0.0256387
0.0820239
0.140661
0.217624
0.313105
0.354034
21.9967
48.1501
60.9973
65.7448
65.3561
61.7169
56.2567
49.9586
43.5023
37.3001
31.5883
26.4771
21.9992
18.1386
14.8521
12.083
9.76966
7.8511
6.26987
4.97386
3.9168
3.05851
2.36443
1.80525
1.35636
0.997167
0.710692
0.482869
0.302208
0.159375
0.0466922
-0.0419127
-0.111472
-0.165907
-0.208416
-0.241553
-0.267294
-0.287277
-0.302739
-0.314674
-0.323896
-0.330962
-0.336413
-0.340567
-0.343752
-0.346183
-0.348025
-0.349429
-0.35049
-0.351282
-0.35189
-0.352323
-0.352661
-0.352893
-0.353073
-0.353197
-0.353282
-0.353338
-0.353371
-0.353381
-0.353386
-0.353363
-0.353346
-0.353302
-0.353257
-0.353191
-0.353111
-0.353005
-0.352874
-0.352702
-0.352489
-0.352204
-0.351845
-0.351364
-0.35074
-0.349907
-0.348807
-0.347344
-0.345409
-0.342842
-0.339455
-0.334985
-0.329123
-0.321455
-0.311497
-0.298649
-0.282234
-0.261496
-0.235673
-0.204083
-0.166313
-0.122407
-0.0731428
-0.0199731
0.0353483
0.0934058
0.159423
0.250983
0.362125
0.394044
19.9637
44.2385
56.2434
60.6661
60.3171
56.9736
51.9491
46.1474
40.1941
34.4709
29.1975
24.4771
20.3406
16.7738
13.7371
11.1783
9.04049
7.26738
5.8059
4.60794
3.63077
2.83725
2.19547
1.67835
1.26317
0.930888
0.665831
0.455
0.287777
0.155541
0.0511918
-0.030878
-0.0953217
-0.145768
-0.185168
-0.21589
-0.23976
-0.258294
-0.272639
-0.28371
-0.29227
-0.298829
-0.303891
-0.30775
-0.310709
-0.312969
-0.314682
-0.315987
-0.316973
-0.317707
-0.318271
-0.31867
-0.318981
-0.319192
-0.319354
-0.319466
-0.31954
-0.319589
-0.319618
-0.319623
-0.319627
-0.319605
-0.319588
-0.319546
-0.319504
-0.319441
-0.319366
-0.319266
-0.319141
-0.318978
-0.318778
-0.31851
-0.318174
-0.317724
-0.317142
-0.316366
-0.315343
-0.313985
-0.31219
-0.30981
-0.306673
-0.302534
-0.297108
-0.290013
-0.280803
-0.268925
-0.253757
-0.234603
-0.210765
-0.181617
-0.146771
-0.106225
-0.0605618
-0.0107588
0.0423696
0.10097
0.172098
0.273954
0.395072
0.41701
17.9055
40.0931
51.1585
55.2324
54.9278
51.8964
47.3331
42.0587
36.6416
31.4305
26.6265
22.325
18.5548
15.3034
12.535
10.2021
8.25285
6.63604
5.30331
4.21079
3.31954
2.59573
2.01025
1.53844
1.15958
0.856325
0.614378
0.421895
0.269192
0.148416
0.0530885
-0.0219018
-0.0807993
-0.126916
-0.16294
-0.191037
-0.212871
-0.229827
-0.242954
-0.253085
-0.260922
-0.266926
-0.271562
-0.275098
-0.277808
-0.27988
-0.28145
-0.282646
-0.28355
-0.284221
-0.284735
-0.285097
-0.285379
-0.285567
-0.285711
-0.285809
-0.285873
-0.285913
-0.285936
-0.285938
-0.28594
-0.285917
-0.285901
-0.285861
-0.285821
-0.285762
-0.285692
-0.285598
-0.285481
-0.285328
-0.285141
-0.284891
-0.28458
-0.284164
-0.283627
-0.282913
-0.281975
-0.280729
-0.279086
-0.276909
-0.274042
-0.27026
-0.265305
-0.258827
-0.250423
-0.239587
-0.225757
-0.208301
-0.186587
-0.160047
-0.128319
-0.0913617
-0.049582
-0.00354108
0.0467271
0.104557
0.178227
0.285752
0.411182
0.423359
15.83
35.7561
45.7839
49.4804
49.222
46.517
42.4376
37.7182
32.8672
28.1979
23.8916
20.0345
16.6533
13.7369
11.2535
9.16061
7.41186
5.96124
4.76542
3.78507
2.98525
2.33565
1.81013
1.38659
1.04645
0.77414
0.556853
0.383961
0.246774
0.138252
0.0525764
-0.0148329
-0.0677867
-0.109259
-0.14166
-0.166937
-0.186583
-0.201841
-0.213657
-0.222774
-0.22983
-0.235235
-0.239412
-0.242598
-0.245039
-0.246907
-0.248322
-0.249399
-0.250214
-0.250815
-0.251277
-0.251598
-0.251848
-0.252012
-0.252136
-0.252219
-0.252271
-0.252303
-0.25232
-0.252317
-0.252317
-0.252294
-0.252278
-0.25224
-0.252203
-0.252147
-0.252082
-0.251994
-0.251886
-0.251743
-0.251571
-0.251341
-0.251057
-0.250677
-0.250189
-0.249541
-0.248693
-0.247568
-0.246087
-0.244127
-0.241547
-0.238146
-0.233693
-0.227874
-0.220327
-0.210601
-0.198192
-0.182536
-0.163072
-0.139289
-0.110857
-0.0777012
-0.0400769
0.00179514
0.0484836
0.104119
0.177596
0.286069
0.410405
0.413965
13.7416
31.2634
40.1598
43.4475
43.2346
40.8683
37.2928
33.1528
28.8946
24.7936
21.0099
17.6201
14.6479
12.0841
9.90078
8.06062
6.52297
5.24739
4.19581
3.33366
2.63022
2.05884
1.59657
1.22396
0.924684
0.685063
0.493832
0.341652
0.220878
0.125325
0.0498737
-0.00950049
-0.0561501
-0.0926929
-0.121246
-0.143525
-0.160843
-0.174293
-0.184713
-0.19275
-0.198974
-0.20374
-0.207425
-0.210237
-0.21239
-0.214038
-0.215286
-0.216236
-0.216955
-0.217482
-0.217887
-0.218164
-0.21838
-0.218519
-0.218622
-0.21869
-0.21873
-0.218753
-0.218763
-0.218756
-0.218753
-0.218729
-0.218712
-0.218676
-0.218641
-0.21859
-0.218529
-0.218448
-0.218349
-0.218218
-0.218061
-0.217853
-0.217596
-0.217254
-0.216818
-0.216241
-0.215488
-0.214491
-0.213182
-0.21145
-0.209175
-0.206177
-0.202255
-0.19713
-0.190488
-0.18193
-0.171017
-0.157254
-0.14015
-0.119258
-0.0942814
-0.065121
-0.0319108
0.00538714
0.0477559
0.0997278
0.17025
0.275057
0.393323
0.390053
11.6433
26.6449
34.3246
37.1717
37.0017
34.9841
31.9298
28.3906
24.7482
21.2386
17.9995
15.0968
12.5514
10.3556
8.48543
6.90914
5.59193
4.49918
3.59827
2.8596
2.25688
1.76728
1.37113
1.0518
0.795287
0.589883
0.42594
0.29546
0.191892
0.109943
0.045222
-0.00571436
-0.0457402
-0.0770997
-0.101604
-0.120727
-0.135593
-0.147139
-0.156086
-0.162984
-0.168328
-0.172419
-0.175583
-0.177999
-0.179847
-0.181263
-0.182333
-0.183148
-0.183764
-0.184212
-0.184557
-0.184788
-0.184969
-0.185081
-0.185162
-0.185213
-0.185241
-0.185254
-0.185258
-0.185245
-0.18524
-0.185214
-0.185197
-0.185163
-0.18513
-0.185082
-0.185027
-0.184952
-0.184862
-0.184744
-0.184604
-0.184417
-0.184191
-0.183889
-0.183508
-0.183005
-0.182352
-0.181489
-0.180359
-0.178868
-0.176912
-0.174335
-0.170968
-0.166571
-0.160874
-0.153537
-0.144184
-0.132395
-0.11775
-0.0998658
-0.0784833
-0.0534925
-0.0249362
0.00739758
0.0447198
0.0915886
0.156488
0.253302
0.361064
0.353114
9.53696
21.9264
28.3147
30.6909
30.5601
28.8993
26.3807
23.4604
20.4533
17.5548
14.8789
12.4805
10.377
8.56213
7.01645
5.71357
4.62478
3.7215
2.97676
2.36611
1.86782
1.46303
1.13549
0.87144
0.659318
0.489443
0.353847
0.245917
0.160238
0.0924387
0.0388839
-0.00326728
-0.0363933
-0.0623503
-0.0826334
-0.0984641
-0.11077
-0.120326
-0.127734
-0.133441
-0.137866
-0.141249
-0.143868
-0.145868
-0.147396
-0.148567
-0.149452
-0.150124
-0.150632
-0.150998
-0.151279
-0.151462
-0.151606
-0.15169
-0.151748
-0.151783
-0.151798
-0.1518
-0.151797
-0.151779
-0.15177
-0.151743
-0.151726
-0.151693
-0.151662
-0.151618
-0.151567
-0.1515
-0.15142
-0.151314
-0.151191
-0.151028
-0.150833
-0.150573
-0.150248
-0.149822
-0.149273
-0.148551
-0.147608
-0.146366
-0.144741
-0.142603
-0.139812
-0.136169
-0.131453
-0.125381
-0.117646
-0.107898
-0.0957947
-0.0810185
-0.0633508
-0.0426817
-0.0189945
0.00801497
0.0396096
0.0800307
0.13685
0.221776
0.315221
0.30485
7.42422
17.1301
22.1645
24.0431
23.9471
22.6494
20.6783
18.3916
16.036
13.7647
11.6673
9.78717
8.13803
6.71511
5.50316
4.48154
3.62777
2.91944
2.33541
1.85653
1.46575
1.14828
0.891388
0.684278
0.517893
0.384635
0.278262
0.193588
0.126363
0.0731667
0.0311402
-0.00193701
-0.0279339
-0.0483057
-0.0642231
-0.0766472
-0.0863032
-0.0937998
-0.0996126
-0.104085
-0.107556
-0.110206
-0.112258
-0.113826
-0.115022
-0.115939
-0.11663
-0.117153
-0.117549
-0.117828
-0.118044
-0.118177
-0.118282
-0.118338
-0.118373
-0.118389
-0.118391
-0.118384
-0.118373
-0.11835
-0.118337
-0.118308
-0.11829
-0.118258
-0.118229
-0.118188
-0.118142
-0.118082
-0.118012
-0.11792
-0.117815
-0.117676
-0.117513
-0.117297
-0.117031
-0.116685
-0.116243
-0.115665
-0.114915
-0.113931
-0.112647
-0.110961
-0.108765
-0.105898
-0.102192
-0.0974225
-0.0913498
-0.0837005
-0.0742076
-0.0626214
-0.0487682
-0.0325485
-0.0139158
0.00745276
0.0327156
0.0654995
0.112089
0.181787
0.257762
0.247126
5.30652
12.2758
15.9071
17.2657
17.2006
16.2705
14.8561
13.2144
11.5229
9.89143
8.3846
7.03366
5.84861
4.82607
3.95512
3.22091
2.60732
2.09825
1.6785
1.33433
1.05345
0.825279
0.640632
0.491768
0.372174
0.276387
0.199927
0.139062
0.0907371
0.0525001
0.022287
-0.00148869
-0.0201756
-0.0348184
-0.0462562
-0.0551836
-0.0621189
-0.0674997
-0.0716735
-0.0748776
-0.077368
-0.0792628
-0.0807325
-0.0818545
-0.0827082
-0.0833638
-0.0838544
-0.0842246
-0.0845042
-0.0846944
-0.0848423
-0.0849238
-0.0849886
-0.0850155
-0.0850271
-0.0850259
-0.0850139
-0.084996
-0.0849783
-0.0849495
-0.0849327
-0.084902
-0.0848823
-0.084851
-0.0848239
-0.0847868
-0.0847453
-0.0846927
-0.084633
-0.0845546
-0.0844682
-0.0843536
-0.0842235
-0.0840528
-0.0838471
-0.0835827
-0.0832513
-0.0828212
-0.0822689
-0.0815478
-0.0806143
-0.0793905
-0.0778018
-0.0757305
-0.0730567
-0.0696183
-0.0652444
-0.0597379
-0.0529089
-0.044577
-0.0346167
-0.0229483
-0.00951996
0.005947
0.0243775
0.0485425
0.0831434
0.13492
0.190965
0.181926
3.18528
7.38109
9.57409
10.3961
10.3584
9.79918
8.94788
7.95956
6.94097
5.95842
5.05073
4.23687
3.52292
2.90685
2.38211
1.93974
1.57004
1.26331
1.0104
0.80303
0.633796
0.49633
0.385086
0.295404
0.223364
0.165661
0.119609
0.0829524
0.0538477
0.030827
0.0126328
-0.00167741
-0.012924
-0.0217339
-0.0286098
-0.0339756
-0.0381388
-0.0413636
-0.0438665
-0.0457774
-0.0472676
-0.0483927
-0.0492673
-0.0499342
-0.0504384
-0.0508264
-0.0511126
-0.0513258
-0.0514865
-0.0515857
-0.0516645
-0.0516937
-0.0517177
-0.051715
-0.0517028
-0.0516836
-0.0516579
-0.0516295
-0.0516043
-0.05157
-0.051549
-0.0515162
-0.0514953
-0.0514645
-0.0514387
-0.0514049
-0.0513681
-0.0513227
-0.0512734
-0.0512089
-0.0511413
-0.0510519
-0.0509554
-0.0508307
-0.0506868
-0.0505059
-0.0502865
-0.0500072
-0.049656
-0.0492029
-0.048625
-0.0478712
-0.0469001
-0.0456366
-0.0440117
-0.0419251
-0.0392759
-0.035944
-0.0318174
-0.026786
-0.0207751
-0.0137318
-0.00561857
0.00375277
0.0149769
0.0297907
0.0510998
0.0829844
0.117334
0.111325
1.06191
2.46276
3.19608
3.47118
3.45886
3.27224
2.98798
2.65791
2.3177
1.98945
1.68607
1.41402
1.17537
0.969444
0.794059
0.646184
0.522603
0.420087
0.335552
0.266257
0.209706
0.163799
0.126652
0.0967176
0.072687
0.0534403
0.0380945
0.0258871
0.0161955
0.0085462
0.00249469
-0.00225094
-0.0059786
-0.00889306
-0.0111574
-0.0129223
-0.0142825
-0.0153269
-0.0161397
-0.0167423
-0.0172204
-0.0175666
-0.0178389
-0.0180449
-0.0181949
-0.0183118
-0.0183908
-0.0184448
-0.0184849
-0.0184918
-0.0185008
-0.0184772
-0.01846
-0.0184274
-0.0183914
-0.0183543
-0.0183149
-0.0182758
-0.0182432
-0.0182033
-0.018178
-0.0181431
-0.0181207
-0.0180903
-0.0180654
-0.0180348
-0.0180026
-0.0179644
-0.0179253
-0.017875
-0.0178263
-0.0177625
-0.0177001
-0.0176221
-0.0175406
-0.0174443
-0.0173382
-0.0172113
-0.0170634
-0.0168811
-0.0166623
-0.0163829
-0.0160354
-0.0155873
-0.0150211
-0.0142987
-0.0133899
-0.0122518
-0.0108506
-0.00914758
-0.00712014
-0.00474704
-0.00201654
0.00113949
0.00492587
0.0099366
0.0171533
0.0279429
0.0395385
0.0374599
-1.06217
-2.46338
-3.19686
-3.4721
-3.45985
-3.27326
-2.98918
-2.65937
-2.31939
-1.99154
-1.68888
-1.41753
-1.17947
-0.974039
-0.799019
-0.65151
-0.528223
-0.425911
-0.341553
-0.272345
-0.215865
-0.169929
-0.132746
-0.102745
-0.0786119
-0.0592796
-0.0438186
-0.0314967
-0.0217108
-0.0139371
-0.00780468
-0.00295266
0.000864646
0.00386651
0.00623035
0.00807936
0.00953235
0.0106763
0.0115603
0.0122708
0.0128089
0.0132446
0.013577
0.0138342
0.01404
0.0141955
0.0143246
0.0144306
0.0145119
0.0145977
0.0146588
0.0147351
0.0147936
0.0148561
0.0149158
0.0149706
0.0150237
0.0150732
0.0151134
0.0151587
0.0151883
0.0152255
0.0152494
0.0152796
0.0153039
0.0153315
0.0153592
0.0153905
0.0154194
0.0154556
0.0154852
0.0155234
0.0155515
0.0155824
0.0156008
0.015612
0.0156044
0.0155782
0.0155221
0.0154327
0.0152914
0.0150949
0.0148169
0.0144471
0.0139514
0.0133054
0.0124686
0.0114065
0.0100744
0.00843976
0.00647231
0.0041602
0.0014852
-0.00161448
-0.00534401
-0.0102891
-0.0174347
-0.0281443
-0.0396555
-0.037497
-3.18554
-7.38171
-9.57486
-10.397
-10.3594
-9.80021
-8.94908
-7.96104
-6.94268
-5.96053
-5.05355
-4.24039
-3.52703
-2.91145
-2.38708
-1.94507
-1.57566
-1.26914
-1.0164
-0.809117
-0.639952
-0.502458
-0.391176
-0.301428
-0.229284
-0.171497
-0.125329
-0.0885587
-0.05936
-0.0362156
-0.0179409
-0.00352445
0.00781109
0.0167081
0.0236833
0.0291329
0.0333886
0.0367124
0.0392868
0.0413055
0.0428559
0.0440704
0.0450049
0.0457237
0.0462841
0.0467112
0.0470475
0.0473131
0.0475153
0.0476934
0.0478244
0.0479528
0.0480523
0.0481445
0.0482274
0.0482998
0.0483661
0.0484261
0.0484736
0.0485243
0.0485582
0.0485977
0.0486233
0.0486535
0.0486774
0.0487023
0.0487255
0.0487499
0.0487688
0.0487912
0.0488018
0.0488143
0.0488081
0.0487919
0.0487473
0.0486734
0.0485522
0.0483735
0.0481138
0.0477536
0.0472534
0.0465827
0.0456814
0.0444963
0.042942
0.0409319
0.0383547
0.0350986
0.0310409
0.0260779
0.0201269
0.0131447
0.00508706
-0.00422775
-0.0153948
-0.0301428
-0.0513808
-0.0831855
-0.117451
-0.111362
-5.30677
-12.2764
-15.9079
-17.2666
-17.2016
-16.2716
-14.8573
-13.2159
-11.5246
-9.89358
-8.38746
-7.0372
-5.85274
-4.8307
-3.9601
-3.22626
-2.61296
-2.10409
-1.68451
-1.34041
-1.0596
-0.8314
-0.646714
-0.497784
-0.378088
-0.282216
-0.20564
-0.144662
-0.0962439
-0.057884
-0.0275915
-0.0037097
0.0150648
0.0297941
0.0413305
0.0503413
0.0573686
0.0628476
0.067093
0.0704048
0.0729558
0.0749399
0.0764692
0.0776441
0.078555
0.0792507
0.0797918
0.0802148
0.0805365
0.0808058
0.0810058
0.0811853
0.0813252
0.0814464
0.0815521
0.0816416
0.0817208
0.0817909
0.0818457
0.0819016
0.0819396
0.0819816
0.082009
0.0820394
0.0820631
0.0820855
0.0821044
0.0821221
0.0821313
0.08214
0.0821319
0.0821188
0.0820786
0.0820156
0.0819083
0.08175
0.0815162
0.0811865
0.0807252
0.0800968
0.0792413
0.0781011
0.0765825
0.07459
0.071987
0.0686253
0.0643233
0.0588922
0.052132
0.0438683
0.0339679
0.0223606
0.00898812
-0.00642195
-0.0247951
-0.0488941
-0.0834235
-0.135121
-0.191081
-0.181963
-7.42446
-17.1307
-22.1653
-24.044
-23.9481
-22.6505
-20.6796
-18.3931
-16.0378
-13.7669
-11.6702
-9.79076
-8.1422
-6.71976
-5.50817
-4.4869
-3.63341
-2.92528
-2.34142
-1.86262
-1.47189
-1.1544
-0.89746
-0.690283
-0.523794
-0.390452
-0.283965
-0.199178
-0.131862
-0.0785435
-0.0364393
-0.00325621
0.0228263
0.0432838
0.0592989
0.0718054
0.0815529
0.0891464
0.0950311
0.099611
0.103143
0.105882
0.107994
0.109616
0.11087
0.111829
0.112571
0.113148
0.113587
0.113945
0.114213
0.114442
0.114621
0.114771
0.114898
0.115004
0.115096
0.115176
0.115238
0.115299
0.115341
0.115385
0.115415
0.115445
0.115469
0.115489
0.115504
0.115515
0.115515
0.11551
0.115484
0.115445
0.115372
0.115262
0.115093
0.114852
0.114507
0.114029
0.113369
0.112477
0.111272
0.10967
0.107545
0.104758
0.101122
0.0964298
0.0904288
0.0828544
0.07343
0.0619118
0.0481186
0.0319601
0.0133834
-0.00792766
-0.0331325
-0.0658501
-0.112368
-0.181986
-0.257879
-0.247163
-9.53719
-21.927
-28.3154
-30.6918
-30.5611
-28.9004
-26.382
-23.462
-20.4551
-17.5571
-14.8818
-12.4841
-10.3812
-8.56682
-7.02149
-5.71896
-4.63044
-3.72735
-2.98277
-2.37219
-1.87396
-1.46914
-1.14155
-0.87743
-0.665204
-0.495246
-0.359536
-0.251495
-0.165726
-0.0978063
-0.0441759
-0.00191912
0.0312899
0.0573315
0.077711
0.093623
0.106019
0.115671
0.123151
0.128965
0.133451
0.136924
0.139602
0.141658
0.143246
0.144461
0.145398
0.146125
0.146677
0.147122
0.147455
0.147732
0.147949
0.148126
0.148275
0.148397
0.1485
0.148589
0.148658
0.148723
0.148769
0.148817
0.148848
0.148879
0.148903
0.148921
0.148932
0.148937
0.148927
0.14891
0.148866
0.148803
0.148696
0.148541
0.148312
0.147989
0.147536
0.146912
0.146059
0.14491
0.143363
0.14131
0.138591
0.135028
0.130383
0.124389
0.116725
0.107051
0.0950161
0.0803078
0.0627001
0.0420923
0.0184615
-0.00848979
-0.0400258
-0.0803802
-0.137127
-0.221975
-0.315337
-0.304887
-11.6435
-26.6455
-34.3253
-37.1725
-37.0027
-34.9852
-31.9311
-28.3923
-24.7501
-21.241
-18.0025
-15.1005
-12.5557
-10.3603
-8.49051
-6.91456
-5.59761
-4.50504
-3.60428
-2.86567
-2.263
-1.77336
-1.37717
-1.05777
-0.801155
-0.595668
-0.431612
-0.301023
-0.197367
-0.115299
-0.0505052
0.000536327
0.0406417
0.0720849
0.096684
0.115887
0.130843
0.142482
0.151502
0.158505
0.163912
0.168092
0.171315
0.17379
0.1757
0.177161
0.178285
0.179156
0.179817
0.180345
0.180741
0.181065
0.181317
0.181521
0.181689
0.181826
0.18194
0.182038
0.182114
0.182184
0.182233
0.182283
0.182317
0.182349
0.182373
0.182389
0.182396
0.182395
0.182377
0.182347
0.182285
0.182198
0.182059
0.181861
0.181572
0.18117
0.180612
0.179848
0.178807
0.177408
0.175531
0.173041
0.169746
0.165429
0.159804
0.152544
0.143263
0.131547
0.11697
0.0991538
0.0778312
0.0529021
0.0244024
-0.0078723
-0.0451351
-0.0919369
-0.156764
-0.2535
-0.361181
-0.35315
-13.7418
-31.2639
-40.1605
-43.4483
-43.2356
-40.8694
-37.2942
-33.1546
-28.8966
-24.7961
-21.0131
-17.6239
-14.6522
-12.0889
-9.9059
-8.06606
-6.52866
-5.25327
-4.20183
-3.33972
-2.63633
-2.06491
-1.60259
-1.22991
-0.93053
-0.690828
-0.499485
-0.347198
-0.226337
-0.130668
-0.0551465
0.00433224
0.0510576
0.0876831
0.116328
0.138685
0.156092
0.169634
0.180127
0.188268
0.194554
0.19941
0.203154
0.206029
0.208245
0.209942
0.211245
0.212253
0.213018
0.213625
0.214081
0.214448
0.214734
0.214963
0.215149
0.215301
0.215425
0.215531
0.215613
0.215687
0.215741
0.215793
0.215829
0.215862
0.215886
0.215901
0.215904
0.215898
0.215871
0.215829
0.215751
0.21564
0.21547
0.215229
0.214884
0.214406
0.213747
0.212847
0.211626
0.209987
0.207791
0.20488
0.201031
0.195988
0.189418
0.180938
0.170096
0.156406
0.13937
0.118545
0.0936279
0.0645294
0.0313761
-0.00586175
-0.0481703
-0.100075
-0.170524
-0.275254
-0.393439
-0.390089
-15.8301
-35.7566
-45.7845
-49.4812
-49.223
-46.5181
-42.439
-37.72
-32.8694
-28.2005
-23.8948
-20.0384
-16.6576
-13.7417
-11.2587
-9.16609
-7.41758
-5.96713
-4.77144
-3.79113
-2.99136
-2.3417
-1.81613
-1.39252
-1.05227
-0.779883
-0.562483
-0.38949
-0.252217
-0.14358
-0.0578375
0.00967571
0.0627009
0.104255
0.136746
0.162098
0.181832
0.197178
0.209069
0.218288
0.225406
0.230903
0.235139
0.238391
0.240897
0.242817
0.244288
0.245425
0.246289
0.24697
0.247482
0.24789
0.248207
0.248459
0.248663
0.248828
0.248962
0.249076
0.249163
0.249241
0.249298
0.249353
0.249392
0.249426
0.249449
0.249463
0.249463
0.249452
0.249416
0.249363
0.249269
0.249136
0.248936
0.248655
0.248256
0.247706
0.246949
0.245921
0.244528
0.242659
0.24016
0.236846
0.232468
0.226731
0.219257
0.209609
0.197271
0.181688
0.16229
0.138574
0.110202
0.0771085
0.0395413
-0.00226965
-0.0488971
-0.104464
-0.177869
-0.286265
-0.410522
-0.414002
-17.9056
-40.0934
-51.159
-55.2332
-54.9288
-51.8975
-47.3346
-42.0606
-36.6438
-31.4331
-26.6298
-22.3289
-18.5593
-15.3083
-12.5403
-10.2076
-8.2586
-6.64194
-5.30933
-4.21685
-3.32563
-2.60176
-2.01623
-1.54435
-1.16538
-0.862043
-0.619984
-0.427403
-0.274616
-0.153728
-0.0583366
0.0167567
0.0757211
0.121918
0.158029
0.1862
0.208121
0.225162
0.238364
0.248595
0.256493
0.262589
0.267286
0.270892
0.273669
0.275796
0.277426
0.278683
0.279638
0.280388
0.280953
0.281399
0.281745
0.282019
0.282238
0.282415
0.282558
0.282678
0.282771
0.282853
0.282913
0.282971
0.283012
0.283047
0.283071
0.283083
0.28308
0.283064
0.283021
0.282956
0.282848
0.282694
0.282466
0.282146
0.281696
0.281077
0.280229
0.279078
0.277523
0.275438
0.272651
0.268957
0.264078
0.257683
0.249352
0.238595
0.224836
0.207452
0.185804
0.15933
0.127663
0.0907678
0.0490454
0.00306665
-0.0471398
-0.104902
-0.178499
-0.285948
-0.4113
-0.423396
-19.9638
-44.2388
-56.2439
-60.6668
-60.3181
-56.9747
-51.9507
-46.1494
-40.1964
-34.4737
-29.2009
-24.4811
-20.3451
-16.7787
-13.7424
-11.1838
-9.04627
-7.27329
-5.81193
-4.61399
-3.63684
-2.84327
-2.20142
-1.68423
-1.26894
-0.936581
-0.671412
-0.460487
-0.293181
-0.160835
-0.0564258
0.0257458
0.0902518
0.140778
0.180261
0.211054
0.23501
0.253626
0.268045
0.279215
0.287836
0.294488
0.299612
0.303545
0.306572
0.308891
0.310667
0.312036
0.313075
0.313887
0.314501
0.314983
0.315354
0.315648
0.315882
0.316069
0.31622
0.316346
0.316443
0.31653
0.316593
0.316653
0.316697
0.316732
0.316757
0.316768
0.316762
0.316741
0.316691
0.316616
0.316493
0.31632
0.316065
0.31571
0.315212
0.314529
0.313595
0.31233
0.310622
0.308335
0.305279
0.301228
0.295879
0.288867
0.279732
0.267932
0.252836
0.233753
0.209981
0.1809
0.146113
0.105629
0.0600242
0.0102844
-0.0427816
-0.101313
-0.17237
-0.27415
-0.39519
-0.417048
-21.9968
-48.1503
-60.9977
-65.7455
-65.3571
-61.7181
-56.2583
-49.9606
-43.5047
-37.3031
-31.5918
-26.4812
-22.0038
-18.1436
-14.8574
-12.0886
-9.77546
-7.85703
-6.2759
-4.9799
-3.92286
-3.06451
-2.37036
-1.8111
-1.3621
-1.00283
-0.716247
-0.488334
-0.307592
-0.164651
-0.0519115
0.036794
0.106411
0.160925
0.203513
0.236718
0.262543
0.282606
0.298142
0.310172
0.319456
0.326616
0.33213
0.336362
0.339617
0.342111
0.34402
0.34549
0.346607
0.347476
0.348134
0.348647
0.349042
0.349353
0.3496
0.349797
0.349955
0.350086
0.350188
0.350278
0.350344
0.350406
0.350452
0.350489
0.350513
0.350524
0.350516
0.350491
0.350434
0.350349
0.350214
0.350022
0.349742
0.349354
0.348812
0.34807
0.347056
0.345686
0.343837
0.341362
0.338057
0.333676
0.327891
0.320308
0.310424
0.297655
0.281312
0.260645
0.234887
0.203364
0.165654
0.121811
0.0726042
0.0194987
-0.0357597
-0.0937485
-0.159695
-0.251179
-0.362244
-0.394083
-23.9906
-51.7775
-65.3785
-70.434
-70.0135