/*--------------------------------*- C++ -*----------------------------------*\
  =========                 |
  \\      /  F ield         | OpenFOAM: The Open Source CFD Toolbox
   \\    /   O peration     | Website:  https://openfoam.org
    \\  /    A nd           | Version:  7
     \\/     M anipulation  |
\*---------------------------------------------------------------------------*/
FoamFile
{
    version     2.0;
    format      ascii;
    class       surfaceScalarField;
    location    "1.5";
    object      phi;
}
// * * * * * * * * * * * * * * * * * * * * * * * * * * * * * * * * * * * * * //

dimensions      [0 3 -1 0 0 0 0];

internalField   nonuniform List<scalar> 
7860
(
0.00283437
0.00216563
0.00262126
0.000213111
0.00260891
1.23488e-05
0.00260641
2.49173e-06
0.00260914
-2.72392e-06
0.00260787
1.26559e-06
0.00260678
1.09692e-06
0.00260521
1.57002e-06
0.00260398
1.22463e-06
0.00260289
1.09183e-06
0.00260201
8.77172e-07
0.00260127
7.40194e-07
0.00260066
6.11909e-07
0.00260014
5.15383e-07
0.00259971
4.33116e-07
0.00259934
3.66737e-07
0.00259903
3.10694e-07
0.00259877
2.65164e-07
0.00259854
2.25653e-07
0.00259835
1.91869e-07
0.00259819
1.62692e-07
0.00259805
1.37706e-07
0.00259793
1.16191e-07
0.00259784
9.73271e-08
0.00259776
8.06023e-08
0.00259769
6.74797e-08
0.00259763
5.54737e-08
0.00259759
4.58402e-08
0.00259755
3.69662e-08
0.00259752
3.01803e-08
0.0025975
2.4211e-08
0.00259748
1.9409e-08
0.00259746
1.55908e-08
0.00259745
1.24691e-08
0.00259744
9.81961e-09
0.00259743
8.14912e-09
0.00259742
6.02952e-09
0.00259742
5.3322e-09
0.00259742
3.92691e-09
0.00259741
3.34103e-09
0.00259741
2.19419e-09
0.00259741
1.8743e-09
0.00259741
1.38678e-09
0.00259741
1.30222e-09
0.0025974
7.45089e-10
0.0025974
6.07692e-10
0.0025974
2.59166e-10
0.0025974
7.22886e-10
0.0025974
6.00685e-11
0.0025974
2.8679e-10
0.0025974
3.54299e-12
0.0025974
3.68657e-10
0.0025974
1.47487e-10
0.0025974
2.46673e-10
0.0025974
-9.12293e-11
0.0025974
4.08512e-10
0.0025974
2.92029e-11
0.0025974
2.20203e-10
0.0025974
-4.82935e-11
0.0025974
3.79655e-10
0.0025974
1.58138e-12
0.0025974
1.97289e-10
0.0025974
-9.38924e-11
0.0025974
1.16618e-10
0.0025974
-1.62677e-10
0.0025974
6.50526e-11
0.0025974
-3.20576e-10
0.0025974
2.49006e-11
0.0025974
-2.54127e-10
0.0025974
-4.68319e-11
0.0025974
-2.57946e-10
0.0025974
8.36867e-11
0.0025974
-1.16578e-10
0.0025974
1.47105e-10
0.0025974
-8.85607e-11
0.0025974
1.77619e-10
0.0025974
5.38263e-11
0.0025974
3.11483e-10
0.0025974
9.36524e-11
0.0025974
4.57816e-10
0.0025974
4.70586e-10
0.0025974
8.99056e-10
0.0025974
1.05827e-09
0.0025974
1.71555e-09
0.00259739
2.41077e-09
0.00259739
3.65528e-09
0.00259739
4.93664e-09
0.00259738
7.2791e-09
0.00259737
1.01989e-08
0.00259735
1.43668e-08
0.00259733
1.9833e-08
0.00259731
2.65527e-08
0.00259727
3.38006e-08
0.00259724
3.78117e-08
0.0025972
3.35606e-08
0.00259718
2.26849e-08
0.00259708
1.01495e-07
0.00259638
6.95931e-07
0.00259378
2.60233e-06
-1.19034e-06
0.00456769
0.00259794
0.00437543
0.000405375
0.00434663
4.11453e-05
0.00434288
6.23874e-06
0.00434591
-5.74719e-06
0.00434439
2.78219e-06
0.00434277
2.71403e-06
0.00434057
3.76969e-06
0.00433878
3.01444e-06
0.0043372
2.67568e-06
0.00433591
2.16504e-06
0.00433483
1.82576e-06
0.00433392
1.51275e-06
0.00433316
1.27576e-06
0.00433252
1.07367e-06
0.00433198
9.11199e-07
0.00433151
7.7446e-07
0.00433111
6.62007e-07
0.00433078
5.65114e-07
0.00433049
4.82197e-07
0.00433024
4.10459e-07
0.00433003
3.48497e-07
0.00432985
2.9449e-07
0.0043297
2.48297e-07
0.00432957
2.0675e-07
0.00432947
1.73333e-07
0.00432938
1.43039e-07
0.00432931
1.18327e-07
0.00432925
9.60905e-08
0.0043292
7.85421e-08
0.00432916
6.34511e-08
0.00432913
5.12276e-08
0.0043291
4.11246e-08
0.00432908
3.33461e-08
0.00432906
2.61745e-08
0.00432905
2.19287e-08
0.00432904
1.66267e-08
0.00432903
1.41688e-08
0.00432903
1.05085e-08
0.00432902
8.79029e-09
0.00432902
6.19079e-09
0.00432901
5.22253e-09
0.00432901
3.72454e-09
0.00432901
3.3016e-09
0.00432901
1.94012e-09
0.00432901
1.96099e-09
0.00432901
7.17504e-10
0.00432901
1.57357e-09
0.00432901
2.95756e-10
0.00432901
7.91969e-10
0.00432901
2.04746e-10
0.00432901
7.85552e-10
0.00432901
2.77155e-10
0.004329
8.55423e-10
0.004329
-4.37091e-11
0.004329
8.691e-10
0.004329
1.79837e-10
0.004329
8.07672e-10
0.004329
8.15143e-12
0.004329
8.21867e-10
0.004329
-2.07818e-12
0.004329
4.70851e-10
0.004329
-2.2708e-10
0.004329
1.85994e-10
0.004329
-5.63748e-10
0.004329
6.82984e-11
0.004329
-7.57076e-10
0.004329
-1.08043e-10
0.004329
-6.66406e-10
0.004329
-1.74045e-11
0.004329
-5.346e-10
0.004329
2.30381e-10
0.004329
-2.40522e-10
0.004329
3.36739e-10
0.004329
-9.38624e-11
0.004329
4.60748e-10
0.004329
4.689e-11
0.004329
7.33505e-10
0.004329
3.36749e-10
0.004329
1.1354e-09
0.004329
1.16259e-09
0.004329
2.18051e-09
0.004329
2.7229e-09
0.004329
4.40146e-09
0.00432899
5.99851e-09
0.00432899
9.11462e-09
0.00432898
1.25223e-08
0.00432897
1.82819e-08
0.00432895
2.57108e-08
0.00432893
3.62163e-08
0.0043289
4.98477e-08
0.00432886
6.69923e-08
0.00432881
8.65581e-08
0.00432874
1.00493e-07
0.00432867
1.0504e-07
0.00432858
1.11455e-07
0.00432827
4.17098e-07
0.00432694
2.02796e-06
0.00432236
7.18197e-06
7.90981e-06
0.00507208
0.00252586
0.00495552
0.00052193
0.00492286
7.38071e-05
0.00492062
8.47757e-06
0.00492247
-7.59873e-06
0.00492134
3.91607e-06
0.00491968
4.36976e-06
0.00491762
5.83102e-06
0.00491587
4.76864e-06
0.00491433
4.20761e-06
0.00491307
3.42507e-06
0.00491201
2.88485e-06
0.00491113
2.39474e-06
0.00491039
2.01953e-06
0.00490976
1.70312e-06
0.00490922
1.44759e-06
0.00490876
1.23322e-06
0.00490837
1.05591e-06
0.00490803
9.03565e-07
0.00490774
7.7319e-07
0.00490749
6.60112e-07
0.00490728
5.62129e-07
0.00490709
4.76245e-07
0.00490694
4.03233e-07
0.00490681
3.37292e-07
0.0049067
2.83212e-07
0.00490661
2.34593e-07
0.00490653
1.94447e-07
0.00490647
1.58702e-07
0.00490642
1.30096e-07
0.00490638
1.05479e-07
0.00490634
8.55397e-08
0.00490631
6.87508e-08
0.00490629
5.6073e-08
0.00490627
4.41352e-08
0.00490626
3.68445e-08
0.00490625
2.83595e-08
0.00490624
2.37492e-08
0.00490623
1.78422e-08
0.00490622
1.48857e-08
0.00490622
1.08221e-08
0.00490622
9.03624e-09
0.00490621
6.36961e-09
0.00490621
5.50428e-09
0.00490621
3.30916e-09
0.00490621
3.41275e-09
0.00490621
1.24146e-09
0.00490621
2.22784e-09
0.00490621
5.55653e-10
0.00490621
1.2339e-09
0.00490621
3.90063e-10
0.00490621
1.11929e-09
0.00490621
3.48241e-10
0.00490621
1.50688e-09
0.00490621
1.59856e-10
0.0049062
1.29254e-09
0.0049062
3.99239e-10
0.0049062
1.42917e-09
0.0049062
1.14004e-10
0.0049062
1.15629e-09
0.0049062
-2.86344e-11
0.0049062
6.84153e-10
0.0049062
-3.62143e-10
0.0049062
2.21303e-10
0.0049062
-9.61754e-10
0.0049062
3.91067e-11
0.0049062
-1.07462e-09
0.0049062
-1.93054e-10
0.0049062
-9.6078e-10
0.0049062
1.04394e-10
0.0049062
-6.83523e-10
0.0049062
4.19168e-10
0.0049062
-2.75677e-10
0.0049062
5.28752e-10
0.0049062
-4.00208e-11
0.0049062
7.64415e-10
0.0049062
6.43864e-11
0.0049062
1.15879e-09
0.0049062
6.8694e-10
0.0049062
1.8489e-09
0.0049062
1.9358e-09
0.0049062
3.53417e-09
0.0049062
4.52229e-09
0.0049062
7.22136e-09
0.00490619
9.73127e-09
0.00490619
1.4694e-08
0.00490618
2.03432e-08
0.00490617
2.94545e-08
0.00490615
4.1378e-08
0.00490613
5.82181e-08
0.0049061
8.00768e-08
0.00490606
1.08065e-07
0.004906
1.41874e-07
0.00490593
1.70599e-07
0.00490584
2.01122e-07
0.00490569
2.57106e-07
0.00490522
8.91161e-07
0.0049036
3.64775e-06
0.00489776
1.30247e-05
2.27386e-05
0.00520996
0.00231591
0.00513965
0.000592234
0.00511259
0.000100868
0.00511148
9.59271e-06
0.00511258
-8.70286e-06
0.00511177
4.73063e-06
0.00511031
5.82018e-06
0.00510858
7.56136e-06
0.00510707
6.28091e-06
0.00510576
5.52177e-06
0.00510467
4.51427e-06
0.00510375
3.79982e-06
0.00510299
3.15891e-06
0.00510234
2.6657e-06
0.00510179
2.25145e-06
0.00510132
1.91602e-06
0.00510092
1.63553e-06
0.00510058
1.40287e-06
0.00510028
1.20306e-06
0.00510002
1.03208e-06
0.00509979
8.83475e-07
0.0050996
7.54493e-07
0.00509944
6.41065e-07
0.0050993
5.44562e-07
0.00509918
4.5723e-07
0.00509908
3.84623e-07
0.00509899
3.19707e-07
0.00509892
2.65706e-07
0.00509886
2.17683e-07
0.00509881
1.79001e-07
0.00509877
1.45516e-07
0.00509874
1.18414e-07
0.00509871
9.5367e-08
0.00509869
7.79933e-08
0.00509867
6.15897e-08
0.00509866
5.1163e-08
0.00509865
3.97558e-08
0.00509864
3.30925e-08
0.00509863
2.51654e-08
0.00509862
2.10382e-08
0.00509862
1.55267e-08
0.00509862
1.28748e-08
0.00509861
9.0702e-09
0.00509861
7.74393e-09
0.00509861
4.72071e-09
0.00509861
4.72401e-09
0.00509861
1.75589e-09
0.00509861
2.72884e-09
0.00509861
7.81292e-10
0.00509861
1.5518e-09
0.00509861
4.67647e-10
0.00509861
1.3787e-09
0.00509861
3.81778e-10
0.00509861
2.07811e-09
0.00509861
4.3301e-10
0.0050986
1.6813e-09
0.0050986
6.08142e-10
0.0050986
1.93534e-09
0.0050986
1.79685e-10
0.0050986
1.36168e-09
0.0050986
-9.18198e-11
0.0050986
8.18387e-10
0.0050986
-5.02175e-10
0.0050986
2.49587e-10
0.0050986
-1.26893e-09
0.0050986
4.11863e-11
0.0050986
-1.24203e-09
0.0050986
-1.5395e-10
0.0050986
-1.08933e-09
0.0050986
2.99981e-10
0.0050986
-7.11023e-10
0.0050986
6.2579e-10
0.0050986
-2.42358e-10
0.0050986
7.16771e-10
0.0050986
2.08925e-11
0.0050986
1.05555e-09
0.0050986
1.28916e-10
0.0050986
1.56321e-09
0.0050986
1.08729e-09
0.0050986
2.54414e-09
0.0050986
2.7279e-09
0.0050986
4.86046e-09
0.0050986
6.26142e-09
0.0050986
9.85601e-09
0.00509859
1.3225e-08
0.00509859
1.9816e-08
0.00509858
2.74888e-08
0.00509857
3.95244e-08
0.00509856
5.53567e-08
0.00509854
7.77978e-08
0.00509851
1.07124e-07
0.00509847
1.45296e-07
0.00509842
1.94024e-07
0.00509835
2.41607e-07
0.00509824
3.12332e-07
0.00509805
4.42153e-07
0.00509749
1.45879e-06
0.00509583
5.3009e-06
0.00508957
1.92886e-05
3.78144e-05
0.00523333
0.00208257
0.00519424
0.00063132
0.00517361
0.000121507
0.0051733
9.89806e-06
0.00517394
-9.34132e-06
0.00517343
5.23849e-06
0.00517226
6.98969e-06
0.0051709
8.92005e-06
0.00516969
7.49263e-06
0.00516864
6.5745e-06
0.00516776
5.39234e-06
0.00516702
4.53902e-06
0.0051664
3.77829e-06
0.00516588
3.18913e-06
0.00516543
2.69756e-06
0.00516505
2.29962e-06
0.00516472
1.9665e-06
0.00516443
1.68983e-06
0.00516418
1.45206e-06
0.00516396
1.24855e-06
0.00516377
1.07146e-06
0.00516361
9.17533e-07
0.00516347
7.81748e-07
0.00516335
6.65856e-07
0.00516325
5.60897e-07
0.00516316
4.72727e-07
0.00516308
3.94167e-07
0.00516302
3.28553e-07
0.00516297
2.69957e-07
0.00516293
2.22658e-07
0.00516289
1.8144e-07
0.00516286
1.48091e-07
0.00516284
1.19534e-07
0.00516282
9.79009e-08
0.0051628
7.75493e-08
0.00516279
6.41733e-08
0.00516278
5.02384e-08
0.00516277
4.17795e-08
0.00516276
3.20834e-08
0.00516276
2.68606e-08
0.00516275
1.99935e-08
0.00516275
1.6516e-08
0.00516275
1.17117e-08
0.00516274
9.91957e-09
0.00516274
6.10041e-09
0.00516274
5.90076e-09
0.00516274
2.30399e-09
0.00516274
3.17881e-09
0.00516274
1.01263e-09
0.00516274
1.79185e-09
0.00516274
4.69371e-10
0.00516274
1.60725e-09
0.00516274
3.94247e-10
0.00516274
2.51809e-09
0.00516274
7.19962e-10
0.00516274
2.0093e-09
0.00516274
7.31483e-10
0.00516274
2.27631e-09
0.00516274
1.80254e-10
0.00516274
1.45829e-09
0.00516274
-1.9115e-10
0.00516274
8.79795e-10
0.00516274
-6.47249e-10
0.00516274
2.86471e-10
0.00516274
-1.48045e-09
0.00516274
5.9657e-11
0.00516274
-1.30956e-09
0.00516274
-3.89901e-11
0.00516274
-1.13443e-09
0.00516274
4.9372e-10
0.00516274
-7.04012e-10
0.00516274
7.77033e-10
0.00516274
-2.2509e-10
0.00516274
8.41018e-10
0.00516274
2.09106e-11
0.00516274
1.27857e-09
0.00516274
1.93131e-10
0.00516274
1.89439e-09
0.00516274
1.46419e-09
0.00516274
3.17172e-09
0.00516274
3.46779e-09
0.00516274
6.06854e-09
0.00516273
7.80479e-09
0.00516273
1.21436e-08
0.00516273
1.62766e-08
0.00516272
2.42106e-08
0.00516272
3.35663e-08
0.00516271
4.79867e-08
0.0051627
6.69986e-08
0.00516268
9.41342e-08
0.00516266
1.29933e-07
0.00516263
1.77273e-07
0.00516258
2.40818e-07
0.00516251
3.10047e-07
0.00516239
4.3049e-07
0.00516219
6.49404e-07
0.0051616
2.04295e-06
0.00516004
6.86762e-06
0.00515415
2.51725e-05
5.09454e-05
0.00522263
0.00185995
0.0052066
0.000647342
0.0051919
0.000136212
0.00519214
9.6599e-06
0.00519249
-9.69879e-06
0.00519225
5.47768e-06
0.00519138
7.8609e-06
0.00519039
9.90709e-06
0.00518949
8.39828e-06
0.0051887
7.36108e-06
0.00518804
6.05462e-06
0.00518748
5.09816e-06
0.00518701
4.24922e-06
0.00518661
3.58877e-06
0.00518627
3.03988e-06
0.00518597
2.59543e-06
0.00518572
2.22327e-06
0.00518549
1.91392e-06
0.00518529
1.64772e-06
0.00518512
1.41979e-06
0.00518497
1.22132e-06
0.00518484
1.04853e-06
0.00518473
8.95587e-07
0.00518463
7.64577e-07
0.00518455
6.45936e-07
0.00518447
5.45462e-07
0.00518441
4.55895e-07
0.00518436
3.80857e-07
0.00518432
3.14005e-07
0.00518428
2.59697e-07
0.00518425
2.12138e-07
0.00518422
1.73567e-07
0.0051842
1.40399e-07
0.00518419
1.15105e-07
0.00518417
9.14291e-08
0.00518416
7.55073e-08
0.00518415
5.94324e-08
0.00518414
4.94855e-08
0.00518414
3.8246e-08
0.00518413
3.20273e-08
0.00518413
2.4028e-08
0.00518413
1.98206e-08
0.00518412
1.41919e-08
0.00518412
1.19489e-08
0.00518412
7.4225e-09
0.00518412
7.01381e-09
0.00518412
2.93425e-09
0.00518412
3.64136e-09
0.00518412
1.26341e-09
0.00518412
1.99836e-09
0.00518412
4.42887e-10
0.00518412
1.80425e-09
0.00518412
3.76148e-10
0.00518412
2.79773e-09
0.00518412
9.70961e-10
0.00518412
2.25485e-09
0.00518412
7.30191e-10
0.00518412
2.45553e-09
0.00518411
1.44318e-10
0.00518411
1.4934e-09
0.00518411
-2.99939e-10
0.00518411
8.87695e-10
0.00518411
-7.75604e-10
0.00518411
3.4747e-10
0.00518411
-1.61264e-09
0.00518411
6.19898e-11
0.00518411
-1.34922e-09
0.00518411
7.73095e-11
0.00518411
-1.18643e-09
0.00518412
5.89202e-10
0.00518412
-7.65571e-10
0.00518412
7.8331e-10
0.00518412
-3.13738e-10
0.00518412
8.28335e-10
0.00518412
-1.05804e-10
0.00518412
1.3736e-09
0.00518412
2.03185e-10
0.00518412
2.1087e-09
0.00518412
1.77234e-09
0.00518412
3.70598e-09
0.00518411
4.11423e-09
0.00518411
7.09799e-09
0.00518411
9.08788e-09
0.00518411
1.40086e-08
0.00518411
1.87774e-08
0.0051841
2.77462e-08
0.0051841
3.83958e-08
0.00518409
5.46557e-08
0.00518408
7.61248e-08
0.00518407
1.07026e-07
0.00518405
1.48227e-07
0.00518403
2.03533e-07
0.00518399
2.81202e-07
0.00518392
3.72632e-07
0.00518381
5.47666e-07
0.0051836
8.60052e-07
0.00518303
2.61342e-06
0.00518165
8.24664e-06
0.0051766
3.02175e-05
6.15783e-05
0.00520397
0.00165598
0.00520552
0.000645792
0.00519614
0.00014559
0.00519673
9.0696e-06
0.0051969
-9.87238e-06
0.00519689
5.48723e-06
0.00519631
8.44135e-06
0.00519567
1.05454e-05
0.00519506
9.00987e-06
0.00519453
7.89288e-06
0.00519407
6.50861e-06
0.00519369
5.48341e-06
0.00519336
4.57646e-06
0.00519308
3.8683e-06
0.00519284
3.28114e-06
0.00519263
2.80536e-06
0.00519245
2.40693e-06
0.00519229
2.07567e-06
0.00519214
1.79017e-06
0.00519202
1.54548e-06
0.00519191
1.33244e-06
0.00519181
1.14655e-06
0.00519172
9.81455e-07
0.00519165
8.39551e-07
0.00519158
7.11078e-07
0.00519153
6.01683e-07
0.00519148
5.03952e-07
0.00519144
4.21969e-07
0.0051914
3.48883e-07
0.00519138
2.89248e-07
0.00519135
2.36852e-07
0.00519133
1.94147e-07
0.00519131
1.57346e-07
0.0051913
1.29134e-07
0.00519129
1.02815e-07
0.00519128
8.48655e-08
0.00519127
6.7026e-08
0.00519126
5.58995e-08
0.00519126
4.33729e-08
0.00519126
3.63384e-08
0.00519125
2.74213e-08
0.00519125
2.26474e-08
0.00519125
1.63934e-08
0.00519125
1.37585e-08
0.00519124
8.6606e-09
0.00519124
8.07832e-09
0.00519124
3.62726e-09
0.00519124
4.11628e-09
0.00519124
1.51589e-09
0.00519124
2.18246e-09
0.00519124
4.01045e-10
0.00519124
1.95223e-09
0.00519124
3.30878e-10
0.00519124
2.91507e-09
0.00519124
1.15055e-09
0.00519124
2.43113e-09
0.00519124
6.35623e-10
0.00519124
2.52482e-09
0.00519124
1.2422e-10
0.00519124
1.5267e-09
0.00519124
-3.71647e-10
0.00519124
8.88168e-10
0.00519124
-8.55644e-10
0.00519124
4.43171e-10
0.00519124
-1.67991e-09
0.00519124
3.13472e-11
0.00519124
-1.41183e-09
0.00519124
1.38192e-10
0.00519124
-1.30844e-09
0.00519124
5.2118e-10
0.00519124
-9.61301e-10
0.00519124
5.98758e-10
0.00519124
-5.58647e-10
0.00519124
6.43419e-10
0.00519124
-3.8608e-10
0.00519124
1.31558e-09
0.00519124
1.46406e-10
0.00519124
2.20808e-09
0.00519124
2.00357e-09
0.00519124
4.15167e-09
0.00519124
4.6601e-09
0.00519124
7.92781e-09
0.00519124
1.00911e-08
0.00519124
1.54257e-08
0.00519124
2.06516e-08
0.00519123
3.03219e-08
0.00519123
4.19221e-08
0.00519122
5.95061e-08
0.00519122
8.27648e-08
0.00519121
1.16509e-07
0.00519119
1.61994e-07
0.00519117
2.23912e-07
0.00519114
3.14338e-07
0.00519109
4.27624e-07
0.00519098
6.57157e-07
0.00519078
1.06039e-06
0.00519026
3.13113e-06
0.00518913
9.37972e-06
0.00518513
3.42137e-05
6.96155e-05
0.00518539
0.00147059
0.00520057
0.000630607
0.0051959
0.000150258
0.0051967
8.27239e-06
0.00519673
-9.90582e-06
0.00519691
5.31085e-06
0.0051966
8.74971e-06
0.00519628
1.08649e-05
0.00519594
9.34687e-06
0.00519565
8.18686e-06
0.00519539
6.76663e-06
0.00519517
5.70468e-06
0.00519498
4.76756e-06
0.00519481
4.03346e-06
0.00519467
3.42574e-06
0.00519454
2.9329e-06
0.00519443
2.52009e-06
0.00519433
2.1769e-06
0.00519423
1.88068e-06
0.00519415
1.62638e-06
0.00519408
1.40507e-06
0.00519402
1.21155e-06
0.00519396
1.03905e-06
0.00519391
8.90369e-07
0.00519386
7.55798e-07
0.00519382
6.40832e-07
0.00519379
5.37795e-07
0.00519376
4.5128e-07
0.00519374
3.7401e-07
0.00519372
3.10707e-07
0.0051937
2.54998e-07
0.00519368
2.0931e-07
0.00519367
1.69891e-07
0.00519366
1.39617e-07
0.00519365
1.1137e-07
0.00519365
9.19637e-08
0.00519364
7.2756e-08
0.00519363
6.07669e-08
0.00519363
4.72475e-08
0.00519363
3.95456e-08
0.00519362
3.00963e-08
0.00519362
2.48604e-08
0.00519362
1.81986e-08
0.00519362
1.52722e-08
0.00519362
9.74155e-09
0.00519362
9.02844e-09
0.00519362
4.29657e-09
0.00519362
4.54089e-09
0.00519362
1.72147e-09
0.00519362
2.3248e-09
0.00519362
3.3355e-10
0.00519362
2.03739e-09
0.00519362
2.72382e-10
0.00519362
2.90364e-09
0.00519362
1.25637e-09
0.00519362
2.58132e-09
0.00519362
5.27034e-10
0.00519362
2.55856e-09
0.00519362
1.72442e-10
0.00519362
1.61219e-09
0.00519362
-3.56876e-10
0.00519362
9.33908e-10
0.00519362
-8.58535e-10
0.00519362
5.79363e-10
0.00519362
-1.68298e-09
0.00519362
-1.90802e-11
0.00519362
-1.51083e-09
0.00519362
1.23965e-10
0.00519362
-1.51292e-09
0.00519362
2.88512e-10
0.00519362
-1.29121e-09
0.00519362
2.42831e-10
0.00519362
-9.48344e-10
0.00519362
3.09819e-10
0.00519362
-7.88439e-10
0.00519362
1.13323e-09
0.00519362
5.16613e-11
0.00519362
2.23044e-09
0.00519362
2.17646e-09
0.00519362
4.5267e-09
0.00519362
5.10632e-09
0.00519362
8.54835e-09
0.00519362
1.08066e-08
0.00519361
1.63779e-08
0.00519361
2.18982e-08
0.00519361
3.19109e-08
0.00519361
4.40824e-08
0.00519361
6.26032e-08
0.0051936
8.70204e-08
0.00519359
1.22688e-07
0.00519359
1.7129e-07
0.00519357
2.38319e-07
0.00519355
3.39586e-07
0.0051935
4.72878e-07
0.00519341
7.52711e-07
0.00519323
1.23729e-06
0.0051928
3.56483e-06
0.00519194
1.02341e-05
0.00518908
3.70738e-05
7.50839e-05
0.00516894
0.00130165
0.0051949
0.000604647
0.00519438
0.000150785
0.00519527
7.37751e-06
0.00519517
-9.81184e-06
0.00519549
4.99354e-06
0.00519543
8.8098e-06
0.0051954
1.08964e-05
0.00519531
9.43141e-06
0.00519524
8.26179e-06
0.00519516
6.84285e-06
0.0051951
5.77324e-06
0.00519503
4.83123e-06
0.00519497
4.09111e-06
0.00519492
3.47905e-06
0.00519487
2.98233e-06
0.00519483
2.56605e-06
0.00519478
2.22014e-06
0.00519474
1.92112e-06
0.0051947
1.66384e-06
0.00519467
1.44006e-06
0.00519464
1.24402e-06
0.00519461
1.06864e-06
0.00519458
9.17144e-07
0.00519456
7.80049e-07
0.00519453
6.62711e-07
0.00519452
5.57143e-07
0.0051945
4.68389e-07
0.00519448
3.88986e-07
0.00519447
3.2366e-07
0.00519446
2.66148e-07
0.00519445
2.18692e-07
0.00519444
1.7769e-07
0.00519444
1.46275e-07
0.00519443
1.16832e-07
0.00519443
9.6572e-08
0.00519442
7.64272e-08
0.00519442
6.39153e-08
0.00519442
4.97926e-08
0.00519442
4.16833e-08
0.00519441
3.19458e-08
0.00519441
2.64043e-08
0.00519441
1.94776e-08
0.00519441
1.63981e-08
0.00519441
1.05549e-08
0.00519441
9.74577e-09
0.00519441
4.82683e-09
0.00519441
4.82813e-09
0.00519441
1.81881e-09
0.00519441
2.39173e-09
0.00519441
2.28544e-10
0.00519441
2.05522e-09
0.00519441
2.2562e-10
0.00519441
2.81812e-09
0.00519441
1.31028e-09
0.00519441
2.75199e-09
0.00519441
4.84994e-10
0.00519441
2.61585e-09
0.00519441
3.12884e-10
0.00519441
1.77285e-09
0.00519441
-2.32422e-10
0.00519441
1.05829e-09
0.00519441
-7.8236e-10
0.00519441
7.51228e-10
0.00519441
-1.62113e-09
0.00519441
-6.01126e-11
0.00519441
-1.63223e-09
0.00519441
4.85503e-11
0.00519441
-1.76451e-09
0.00519441
-4.86772e-11
0.00519441
-1.69489e-09
0.00519441
-2.07029e-10
0.00519441
-1.41513e-09
0.00519441
-9.442e-11
0.00519441
-1.23351e-09
0.00519441
8.91365e-10
0.00519441
-3.48558e-11
0.00519441
2.22028e-09
0.00519441
2.3047e-09
0.00519441
4.8268e-09
0.00519441
5.43253e-09
0.00519441
8.94002e-09
0.00519441
1.12249e-08
0.00519441
1.68595e-08
0.00519441
2.24507e-08
0.00519441
3.26114e-08
0.00519441
4.50003e-08
0.0051944
6.40087e-08
0.0051944
8.89898e-08
0.0051944
1.25667e-07
0.00519439
1.76173e-07
0.00519438
2.46682e-07
0.00519437
3.56331e-07
0.00519434
5.06388e-07
0.00519426
8.28829e-07
0.00519412
1.37985e-06
0.00519379
3.89248e-06
0.00519323
1.0791e-05
0.00519153
3.8775e-05
7.80788e-05
0.00515492
0.00114673
0.0051895
0.000570061
0.00519261
0.000147678
0.00519352
6.46099e-06
0.0051933
-9.58739e-06
0.00519371
4.57747e-06
0.00519388
8.64749e-06
0.0051941
1.06701e-05
0.00519425
9.28634e-06
0.00519437
8.13693e-06
0.00519446
6.75211e-06
0.00519454
5.70094e-06
0.00519459
4.77675e-06
0.00519463
4.04872e-06
0.00519467
3.44704e-06
0.00519469
2.9584e-06
0.00519471
2.54864e-06
0.00519472
2.20836e-06
0.00519473
1.91381e-06
0.00519473
1.65967e-06
0.00519473
1.43871e-06
0.00519473
1.24492e-06
0.00519473
1.07096e-06
0.00519472
9.20411e-07
0.00519472
7.84151e-07
0.00519472
6.67434e-07
0.00519471
5.61981e-07
0.00519471
4.73184e-07
0.0051947
3.93628e-07
0.0051947
3.27912e-07
0.0051947
2.70072e-07
0.00519469
2.2212e-07
0.00519469
1.80574e-07
0.00519469
1.48949e-07
0.00519468
1.19073e-07
0.00519468
9.85765e-08
0.00519468
7.79929e-08
0.00519468
6.5321e-08
0.00519468
5.1026e-08
0.00519468
4.27245e-08
0.00519467
3.29358e-08
0.00519467
2.72227e-08
0.00519467
2.01829e-08
0.00519467
1.70646e-08
0.00519467
1.10028e-08
0.00519467
1.01317e-08
0.00519467
5.08799e-09
0.00519467
4.90855e-09
0.00519467
1.75761e-09
0.00519467
2.3572e-09
0.00519467
8.70619e-11
0.00519467
2.01128e-09
0.00519467
2.13836e-10
0.00519467
2.71275e-09
0.00519467
1.3378e-09
0.00519467
2.96235e-09
0.00519467
5.50112e-10
0.00519467
2.71478e-09
0.00519467
5.26525e-10
0.00519467
1.98663e-09
0.00519467
-1.92194e-11
0.00519467
1.25256e-09
0.00519467
-6.60031e-10
0.00519467
9.34124e-10
0.00519467
-1.50644e-09
0.00519467
-7.05289e-11
0.00519467
-1.75183e-09
0.00519467
-5.34447e-11
0.00519467
-2.00206e-09
0.00519467
-3.94844e-10
0.00519467
-2.08044e-09
0.00519467
-6.44236e-10
0.00519467
-1.86192e-09
0.00519467
-4.65672e-10
0.00519467
-1.62759e-09
0.00519467
6.55685e-10
0.00519467
-8.28547e-11
0.00519467
2.20088e-09
0.00519467
2.37584e-09
0.00519467
5.01669e-09
0.00519467
5.60272e-09
0.00519467
9.09253e-09
0.00519467
1.13273e-08
0.00519467
1.68814e-08
0.00519467
2.23802e-08
0.00519467
3.24468e-08
0.00519467
4.47542e-08
0.00519467
6.38164e-08
0.00519467
8.8775e-08
0.00519467
1.25557e-07
0.00519467
1.76719e-07
0.00519467
2.48967e-07
0.00519466
3.64078e-07
0.00519464
5.26547e-07
0.00519459
8.81127e-07
0.00519449
1.47987e-06
0.00519428
4.09942e-06
0.00519403
1.10416e-05
0.00519347
3.93354e-05
7.87408e-05
0.00514309
0.00100364
0.00518464
0.000528515
0.00519093
0.000141386
0.00519182
5.5709e-06
0.00519146
-9.22376e-06
0.00519193
4.09957e-06
0.00519229
8.289e-06
0.00519275
1.02154e-05
0.0051931
8.93438e-06
0.0051934
7.8315e-06
0.00519365
6.50951e-06
0.00519385
5.49998e-06
0.00519401
4.61381e-06
0.00519415
3.91414e-06
0.00519426
3.33609e-06
0.00519435
2.86634e-06
0.00519443
2.47208e-06
0.00519449
2.14499e-06
0.00519454
1.8615e-06
0.00519459
1.6161e-06
0.00519462
1.40278e-06
0.00519465
1.21566e-06
0.00519467
1.04716e-06
0.00519469
9.01088e-07
0.00519471
7.6877e-07
0.00519472
6.55417e-07
0.00519473
5.5258e-07
0.00519474
4.65839e-07
0.00519474
3.87999e-07
0.00519475
3.23508e-07
0.00519475
2.66773e-07
0.00519476
2.19621e-07
0.00519476
1.78563e-07
0.00519476
1.47633e-07
0.00519476
1.18109e-07
0.00519476
9.79937e-08
0.00519476
7.75205e-08
0.00519476
6.50493e-08
0.00519476
5.09895e-08
0.00519476
4.27017e-08
0.00519476
3.30705e-08
0.00519476
2.73262e-08
0.00519476
2.02825e-08
0.00519476
1.72043e-08
0.00519476
1.1013e-08
0.00519476
1.00974e-08
0.00519476
5.03985e-09
0.00519476
4.75736e-09
0.00519476
1.52182e-09
0.00519476
2.22662e-09
0.00519476
-9.62595e-11
0.00519476
1.93015e-09
0.00519476
2.35788e-10
0.00519476
2.62957e-09
0.00519476
1.34564e-09
0.00519476
3.19677e-09
0.00519476
7.04068e-10
0.00519476
2.839e-09
0.00519476
7.4192e-10
0.00519476
2.20575e-09
0.00519476
2.17472e-10
0.00519476
1.45923e-09
0.00519476
-5.32295e-10
0.00519476
1.07221e-09
0.00519476
-1.35698e-09
0.00519476
-4.43698e-11
0.00519476
-1.84407e-09
0.00519476
-1.4526e-10
0.00519476
-2.15978e-09
0.00519476
-6.57793e-10
0.00519476
-2.35388e-09
0.00519476
-9.78056e-10
0.00519476
-2.18926e-09
0.00519476
-7.25538e-10
0.00519476
-1.89908e-09
0.00519476
4.68421e-10
0.00519476
-9.59e-11
0.00519476
2.16686e-09
0.00519476
2.3547e-09
0.00519476
5.04951e-09
0.00519476
5.56863e-09
0.00519476
8.95909e-09
0.00519476
1.10905e-08
0.00519476
1.64487e-08
0.00519476
2.17225e-08
0.00519476
3.14895e-08
0.00519476
4.34311e-08
0.00519477
6.21221e-08
0.00519477
8.64822e-08
0.00519477
1.22489e-07
0.00519478
1.73039e-07
0.00519478
2.45213e-07
0.00519478
3.62523e-07
0.00519478
5.32219e-07
0.00519475
9.06479e-07
0.0051947
1.53175e-06
0.00519462
4.17721e-06
0.00519468
1.09859e-05
0.00519521
3.88024e-05
7.72383e-05
0.00513319
0.000870449
0.00518037
0.000481339
0.00518944
0.000132314
0.00519028
4.73418e-06
0.00518976
-8.71279e-06
0.00519027
3.59039e-06
0.0051908
7.75991e-06
0.00519146
9.55987e-06
0.00519199
8.39788e-06
0.00519246
7.36449e-06
0.00519284
6.13024e-06
0.00519316
5.18276e-06
0.00519342
4.3524e-06
0.00519364
3.69557e-06
0.00519382
3.15298e-06
0.00519398
2.71172e-06
0.00519411
2.34101e-06
0.00519422
2.03384e-06
0.00519431
1.76733e-06
0.00519439
1.53581e-06
0.00519446
1.33451e-06
0.00519452
1.15809e-06
0.00519457
9.98794e-07
0.00519461
8.60439e-07
0.00519464
7.34888e-07
0.00519467
6.2739e-07
0.00519469
5.29494e-07
0.00519471
4.46812e-07
0.00519473
3.72435e-07
0.00519474
3.10736e-07
0.00519475
2.56483e-07
0.00519476
2.11405e-07
0.00519477
1.71843e-07
0.00519477
1.42447e-07
0.00519478
1.14056e-07
0.00519478
9.49313e-08
0.00519478
7.51236e-08
0.00519478
6.32045e-08
0.00519478
4.9731e-08
0.00519479
4.16839e-08
0.00519479
3.23724e-08
0.00519479
2.67305e-08
0.00519479
1.97644e-08
0.00519479
1.68076e-08
0.00519479
1.0579e-08
0.00519479
9.63993e-09
0.00519479
4.67504e-09
0.00519479
4.39377e-09
0.00519479
1.13053e-09
0.00519479
1.99962e-09
0.00519479
-2.94376e-10
0.00519479
1.81028e-09
0.00519479
2.87927e-10
0.00519479
2.57164e-09
0.00519479
1.32419e-09
0.00519479
3.40579e-09
0.00519479
8.9537e-10
0.00519479
2.93715e-09
0.00519479
9.03244e-10
0.00519479
2.35952e-09
0.00519479
4.08983e-10
0.00519479
1.62627e-09
0.00519479
-4.6057e-10
0.00519479
1.13409e-09
0.00519479
-1.21877e-09
0.00519479
6.64476e-12
0.00519479
-1.9048e-09
0.00519479
-2.05457e-10
0.00519479
-2.21069e-09
0.00519479
-7.82915e-10
0.00519479
-2.4741e-09
0.00519479
-1.15264e-09
0.00519479
-2.35601e-09
0.00519479
-8.2839e-10
0.00519479
-2.02421e-09
0.00519479
3.2935e-10
0.00519479
-1.05471e-10
0.00519479
2.08267e-09
0.00519479
2.19419e-09
0.00519479
4.87669e-09
0.00519479
5.29962e-09
0.00519479
8.52863e-09
0.00519479
1.05111e-08
0.00519479
1.55897e-08
0.00519479
2.05228e-08
0.0051948
2.98191e-08
0.0051948
4.11213e-08
0.0051948
5.90259e-08
0.00519481
8.22279e-08
0.00519481
1.16618e-07
0.00519482
1.65301e-07
0.00519483
2.35553e-07
0.00519484
3.51591e-07
0.00519485
5.22784e-07
0.00519485
9.03036e-07
0.00519485
1.53239e-06
0.00519491
4.12307e-06
0.00519526
1.06316e-05
0.00519682
3.72444e-05
7.37578e-05
0.00512494
0.00074551
0.00517667
0.000429608
0.00518815
0.000120833
0.00518892
3.96271e-06
0.00518826
-8.0502e-06
0.00518878
3.07379e-06
0.00518945
7.08463e-06
0.00519028
8.72983e-06
0.00519098
7.69874e-06
0.00519159
6.75461e-06
0.00519209
5.62947e-06
0.00519251
4.76185e-06
0.00519286
4.00279e-06
0.00519316
3.40153e-06
0.0051934
2.90478e-06
0.00519362
2.50051e-06
0.0051938
2.16044e-06
0.00519395
1.87915e-06
0.00519408
1.63485e-06
0.0051942
1.42184e-06
0.00519429
1.23654e-06
0.00519438
1.07445e-06
0.00519445
9.27741e-07
0.00519451
8.00034e-07
0.00519456
6.83785e-07
0.0051946
5.84391e-07
0.00519464
4.93561e-07
0.00519467
4.16824e-07
0.0051947
3.47529e-07
0.00519472
2.90104e-07
0.00519473
2.3963e-07
0.00519475
1.97826e-07
0.00519476
1.6072e-07
0.00519477
1.33618e-07
0.00519477
1.07099e-07
0.00519478
8.95392e-08
0.00519478
7.09251e-08
0.00519479
5.98848e-08
0.00519479
4.72979e-08
0.00519479
3.9719e-08
0.00519479
3.08674e-08
0.00519479
2.54555e-08
0.00519479
1.86568e-08
0.0051948
1.59101e-08
0.0051948
9.73997e-09
0.0051948
8.81079e-09
0.0051948
4.03153e-09
0.0051948
3.86901e-09
0.0051948
6.27823e-10
0.0051948
1.69724e-09
0.0051948
-4.98961e-10
0.0051948
1.65676e-09
0.0051948
3.43691e-10
0.0051948
2.528e-09
0.0051948
1.25348e-09
0.0051948
3.54018e-09
0.0051948
1.06195e-09
0.0051948
2.9733e-09
0.0051948
9.66214e-10
0.0051948
2.40841e-09
0.0051948
5.00705e-10
0.0051948
1.70813e-09
0.0051948
-4.73373e-10
0.0051948
1.09295e-09
0.0051948
-1.1296e-09
0.0051948
6.2937e-11
0.0051948
-1.93951e-09
0.0051948
-2.32794e-10
0.0051948
-2.16288e-09
0.0051948
-7.67028e-10
0.0051948
-2.44459e-09
0.0051948
-1.16931e-09
0.0051948
-2.3674e-09
0.0051948
-7.88747e-10
0.0051948
-2.02823e-09
0.0051948
2.13109e-10
0.0051948
-1.58699e-10
0.0051948
1.91433e-09
0.0051948
1.86944e-09
0.0051948
4.48067e-09
0.0051948
4.79101e-09
0.0051948
7.81459e-09
0.0051948
9.607e-09
0.0051948
1.43473e-08
0.00519481
1.88413e-08
0.00519481
2.7513e-08
0.00519481
3.79223e-08
0.00519482
5.4642e-08
0.00519482
7.61521e-08
0.00519483
1.08143e-07
0.00519484
1.53745e-07
0.00519486