/*--------------------------------*- C++ -*----------------------------------*\
  =========                 |
  \\      /  F ield         | OpenFOAM: The Open Source CFD Toolbox
   \\    /   O peration     | Website:  https://openfoam.org
    \\  /    A nd           | Version:  7
     \\/     M anipulation  |
\*---------------------------------------------------------------------------*/
FoamFile
{
    version     2.0;
    format      ascii;
    class       volVectorField;
    location    "1.5";
    object      U;
}
// * * * * * * * * * * * * * * * * * * * * * * * * * * * * * * * * * * * * * //

dimensions      [0 1 -1 0 0 0 0];

internalField   nonuniform List<vector> 
4000
(
(0.537564 0.0563959 0)
(0.552177 0.0035977 0)
(0.51706 -0.00176439 0)
(0.522883 -0.00200136 0)
(0.521072 -0.002131 0)
(0.522005 -0.00203789 0)
(0.521399 -0.00204488 0)
(0.521248 -0.0020349 0)
(0.520904 -0.00204435 0)
(0.520695 -0.00204826 0)
(0.520487 -0.00205391 0)
(0.52033 -0.00205753 0)
(0.520193 -0.00206087 0)
(0.520081 -0.00206339 0)
(0.519985 -0.00206546 0)
(0.519905 -0.00206709 0)
(0.519837 -0.00206843 0)
(0.51978 -0.0020695 0)
(0.519731 -0.00207041 0)
(0.519689 -0.00207116 0)
(0.519653 -0.00207179 0)
(0.519623 -0.00207233 0)
(0.519598 -0.00207277 0)
(0.519577 -0.00207316 0)
(0.519559 -0.00207351 0)
(0.519544 -0.00207377 0)
(0.519532 -0.00207401 0)
(0.519522 -0.0020742 0)
(0.519514 -0.00207438 0)
(0.519507 -0.00207451 0)
(0.519501 -0.00207463 0)
(0.519497 -0.00207472 0)
(0.519493 -0.00207479 0)
(0.519491 -0.00207485 0)
(0.519488 -0.0020749 0)
(0.519487 -0.00207493 0)
(0.519485 -0.00207498 0)
(0.519484 -0.00207498 0)
(0.519483 -0.00207502 0)
(0.519483 -0.00207502 0)
(0.519482 -0.00207505 0)
(0.519482 -0.00207505 0)
(0.519481 -0.00207506 0)
(0.519481 -0.00207507 0)
(0.519481 -0.00207508 0)
(0.519481 -0.00207508 0)
(0.519481 -0.00207509 0)
(0.519481 -0.00207507 0)
(0.519481 -0.00207509 0)
(0.519481 -0.00207508 0)
(0.519481 -0.00207509 0)
(0.519481 -0.00207508 0)
(0.519481 -0.00207509 0)
(0.519481 -0.00207508 0)
(0.519481 -0.00207509 0)
(0.51948 -0.00207508 0)
(0.51948 -0.00207509 0)
(0.51948 -0.00207508 0)
(0.51948 -0.00207509 0)
(0.51948 -0.00207508 0)
(0.51948 -0.00207509 0)
(0.51948 -0.00207508 0)
(0.51948 -0.00207509 0)
(0.51948 -0.00207509 0)
(0.51948 -0.00207509 0)
(0.51948 -0.00207509 0)
(0.51948 -0.0020751 0)
(0.51948 -0.00207509 0)
(0.51948 -0.0020751 0)
(0.51948 -0.00207509 0)
(0.51948 -0.0020751 0)
(0.51948 -0.00207509 0)
(0.51948 -0.00207509 0)
(0.51948 -0.00207509 0)
(0.51948 -0.00207509 0)
(0.51948 -0.00207508 0)
(0.51948 -0.00207509 0)
(0.51948 -0.00207508 0)
(0.51948 -0.00207509 0)
(0.51948 -0.00207508 0)
(0.51948 -0.00207508 0)
(0.51948 -0.00207507 0)
(0.51948 -0.00207506 0)
(0.519479 -0.00207505 0)
(0.519479 -0.00207503 0)
(0.519478 -0.002075 0)
(0.519478 -0.00207497 0)
(0.519476 -0.00207492 0)
(0.519475 -0.00207485 0)
(0.519472 -0.00207475 0)
(0.519469 -0.00207463 0)
(0.519464 -0.00207449 0)
(0.519458 -0.00207435 0)
(0.51945 -0.00207434 0)
(0.519443 -0.00207463 0)
(0.519435 -0.00207528 0)
(0.519442 -0.00207439 0)
(0.51936 -0.00206119 0)
(0.519228 -0.00202119 0)
(0.518638 -0.00215161 0)
(0.864915 0.128451 0)
(0.911561 0.0160053 0)
(0.861953 0.000986171 0)
(0.871341 -7.19578e-05 0)
(0.867958 -0.000506345 0)
(0.869548 -0.000191267 0)
(0.868591 -0.000202323 0)
(0.868423 -0.000164178 0)
(0.86791 -0.000193547 0)
(0.867612 -0.000206033 0)
(0.867306 -0.000225181 0)
(0.867076 -0.000237869 0)
(0.866874 -0.000249815 0)
(0.866709 -0.000259021 0)
(0.866568 -0.000266301 0)
(0.86645 -0.00027209 0)
(0.866348 -0.000276963 0)
(0.866262 -0.000280941 0)
(0.866189 -0.000284367 0)
(0.866126 -0.000287287 0)
(0.866072 -0.000289801 0)
(0.866026 -0.000291965 0)
(0.865987 -0.000293832 0)
(0.865954 -0.000295434 0)
(0.865927 -0.000296873 0)
(0.865904 -0.000298005 0)
(0.865884 -0.000299044 0)
(0.865868 -0.000299876 0)
(0.865855 -0.000300636 0)
(0.865844 -0.000301228 0)
(0.865836 -0.000301736 0)
(0.865828 -0.000302152 0)
(0.865823 -0.000302484 0)
(0.865818 -0.000302747 0)
(0.865814 -0.000302986 0)
(0.865811 -0.000303121 0)
(0.865809 -0.000303308 0)
(0.865807 -0.000303375 0)
(0.865806 -0.000303502 0)
(0.865805 -0.000303554 0)
(0.865804 -0.000303645 0)
(0.865803 -0.000303676 0)
(0.865803 -0.000303722 0)
(0.865802 -0.000303733 0)
(0.865802 -0.00030378 0)
(0.865802 -0.00030378 0)
(0.865801 -0.000303823 0)
(0.865801 -0.000303784 0)
(0.865801 -0.000303836 0)
(0.865801 -0.000303815 0)
(0.865801 -0.000303838 0)
(0.865801 -0.000303814 0)
(0.865801 -0.000303832 0)
(0.865801 -0.000303814 0)
(0.865801 -0.000303847 0)
(0.865801 -0.000303809 0)
(0.865801 -0.000303838 0)
(0.865801 -0.000303815 0)
(0.865801 -0.000303844 0)
(0.865801 -0.00030381 0)
(0.865801 -0.000303842 0)
(0.865801 -0.000303825 0)
(0.865801 -0.00030385 0)
(0.865801 -0.000303834 0)
(0.865801 -0.00030386 0)
(0.865801 -0.000303837 0)
(0.865801 -0.00030387 0)
(0.865801 -0.000303843 0)
(0.865801 -0.000303865 0)
(0.865801 -0.000303843 0)
(0.865801 -0.000303863 0)
(0.865801 -0.000303834 0)
(0.865801 -0.000303852 0)
(0.865801 -0.00030383 0)
(0.865801 -0.000303848 0)
(0.865801 -0.000303827 0)
(0.865801 -0.000303841 0)
(0.865801 -0.000303817 0)
(0.865801 -0.000303834 0)
(0.8658 -0.000303805 0)
(0.8658 -0.000303806 0)
(0.8658 -0.000303769 0)
(0.8658 -0.000303754 0)
(0.865799 -0.000303697 0)
(0.865799 -0.000303643 0)
(0.865798 -0.000303537 0)
(0.865796 -0.000303426 0)
(0.865795 -0.00030323 0)
(0.865792 -0.000302982 0)
(0.865788 -0.000302631 0)
(0.865783 -0.000302177 0)
(0.865776 -0.000301614 0)
(0.865766 -0.000301003 0)
(0.865754 -0.000300654 0)
(0.865742 -0.000300881 0)
(0.865724 -0.000301453 0)
(0.865718 -0.000293352 0)
(0.865545 -0.000239579 0)
(0.865252 -7.34822e-05 0)
(0.863186 -0.00021921 0)
(0.960318 0.135901 0)
(1.02533 0.0244331 0)
(0.976319 0.00334252 0)
(0.987406 0.000822787 0)
(0.983099 0.000101202 0)
(0.985004 0.000606466 0)
(0.983932 0.00061265 0)
(0.983839 0.00067703 0)
(0.983316 0.000629592 0)
(0.983038 0.000606275 0)
(0.982734 0.000572549 0)
(0.982512 0.000549463 0)
(0.982314 0.000528114 0)
(0.982153 0.00051161 0)
(0.982014 0.000498269 0)
(0.981898 0.000487633 0)
(0.981798 0.000478697 0)
(0.981713 0.000471323 0)
(0.981639 0.000464986 0)
(0.981576 0.000459566 0)
(0.981522 0.000454877 0)
(0.981476 0.000450826 0)
(0.981436 0.000447287 0)
(0.981403 0.000444281 0)
(0.981374 0.000441576 0)
(0.98135 0.000439386 0)
(0.98133 0.000437415 0)
(0.981314 0.000435795 0)
(0.9813 0.000434336 0)
(0.981288 0.000433174 0)
(0.981279 0.000432177 0)
(0.981271 0.00043137 0)
(0.981265 0.000430696 0)
(0.98126 0.000430185 0)
(0.981256 0.000429704 0)
(0.981253 0.000429418 0)
(0.98125 0.000429072 0)
(0.981248 0.000428898 0)
(0.981247 0.000428658 0)
(0.981245 0.000428541 0)
(0.981244 0.000428375 0)
(0.981243 0.000428307 0)
(0.981243 0.000428204 0)
(0.981242 0.000428173 0)
(0.981242 0.000428083 0)
(0.981242 0.000428089 0)
(0.981242 0.000428002 0)
(0.981241 0.00042805 0)
(0.981241 0.000427975 0)
(0.981241 0.000428006 0)
(0.981241 0.00042797 0)
(0.981241 0.000428003 0)
(0.981241 0.00042797 0)
(0.981241 0.000428014 0)
(0.981241 0.000427956 0)
(0.981241 0.000428009 0)
(0.981241 0.000427968 0)
(0.981241 0.000428011 0)
(0.981241 0.000427957 0)
(0.981241 0.000428005 0)
(0.981241 0.000427953 0)
(0.981241 0.000427984 0)
(0.981241 0.00042794 0)
(0.981241 0.000427965 0)
(0.981241 0.000427916 0)
(0.981241 0.000427958 0)
(0.981241 0.000427908 0)
(0.981241 0.000427947 0)
(0.981241 0.000427913 0)
(0.981241 0.000427957 0)
(0.981241 0.000427924 0)
(0.981241 0.000427971 0)
(0.981241 0.000427941 0)
(0.981241 0.000427977 0)
(0.981241 0.000427951 0)
(0.981241 0.000427986 0)
(0.981241 0.000427957 0)
(0.981241 0.000428002 0)
(0.981241 0.000427979 0)
(0.981241 0.000428028 0)
(0.981241 0.00042803 0)
(0.98124 0.000428095 0)
(0.98124 0.000428132 0)
(0.981239 0.000428241 0)
(0.981239 0.000428342 0)
(0.981238 0.000428543 0)
(0.981237 0.000428767 0)
(0.981235 0.000429136 0)
(0.981232 0.000429616 0)
(0.981228 0.000430294 0)
(0.981223 0.000431172 0)
(0.981216 0.000432284 0)
(0.981206 0.00043358 0)
(0.981193 0.000434568 0)
(0.981179 0.000435214 0)
(0.981152 0.000436358 0)
(0.981132 0.000458761 0)
(0.980909 0.000569033 0)
(0.980542 0.000943033 0)
(0.977594 0.00117798 0)
(0.984968 0.12329 0)
(1.0595 0.028659 0)
(1.01375 0.00469018 0)
(1.02591 0.000698127 0)
(1.021 -0.000187815 0)
(1.02312 0.000440344 0)
(1.02201 0.000479123 0)
(1.02201 0.000562047 0)
(1.02153 0.000501382 0)
(1.02131 0.000467161 0)
(1.02104 0.000420323 0)
(1.02085 0.000387124 0)
(1.02067 0.000356728 0)
(1.02053 0.000332926 0)
(1.02041 0.00031365 0)
(1.02031 0.000298658 0)
(1.02023 0.000286107 0)
(1.02015 0.000275706 0)
(1.02009 0.000266771 0)
(1.02003 0.000259127 0)
(1.01998 0.000252489 0)
(1.01994 0.000246732 0)
(1.0199 0.000241677 0)
(1.01987 0.000237381 0)
(1.01985 0.000233498 0)
(1.01982 0.000230286 0)
(1.01981 0.000227411 0)
(1.01979 0.000225026 0)
(1.01978 0.000222911 0)
(1.01977 0.000221212 0)
(1.01976 0.000219746 0)
(1.01975 0.00021856 0)
(1.01974 0.000217555 0)
(1.01974 0.000216799 0)
(1.01974 0.000216086 0)
(1.01973 0.000215641 0)
(1.01973 0.000215142 0)
(1.01973 0.000214859 0)
(1.01973 0.000214513 0)
(1.01973 0.000214336 0)
(1.01972 0.000214098 0)
(1.01972 0.000213987 0)
(1.01972 0.000213824 0)
(1.01972 0.000213769 0)
(1.01972 0.000213638 0)
(1.01972 0.000213642 0)
(1.01972 0.000213513 0)
(1.01972 0.000213562 0)
(1.01972 0.000213471 0)
(1.01972 0.000213508 0)
(1.01972 0.00021346 0)
(1.01972 0.000213501 0)
(1.01972 0.000213455 0)
(1.01972 0.000213528 0)
(1.01972 0.000213452 0)
(1.01972 0.000213512 0)
(1.01972 0.000213462 0)
(1.01972 0.000213522 0)
(1.01972 0.000213445 0)
(1.01972 0.000213501 0)
(1.01972 0.000213434 0)
(1.01972 0.000213475 0)
(1.01972 0.000213416 0)
(1.01972 0.000213449 0)
(1.01972 0.000213381 0)
(1.01972 0.00021344 0)
(1.01972 0.000213379 0)
(1.01972 0.000213429 0)
(1.01972 0.000213386 0)
(1.01972 0.000213448 0)
(1.01972 0.000213403 0)
(1.01972 0.000213464 0)
(1.01972 0.000213424 0)
(1.01972 0.000213469 0)
(1.01972 0.000213437 0)
(1.01972 0.000213484 0)
(1.01972 0.000213442 0)
(1.01972 0.000213506 0)
(1.01972 0.000213482 0)
(1.01972 0.000213548 0)
(1.01972 0.000213554 0)
(1.01972 0.000213648 0)
(1.01972 0.000213708 0)
(1.01972 0.000213867 0)
(1.01972 0.000214015 0)
(1.01972 0.000214305 0)
(1.01972 0.000214638 0)
(1.01972 0.000215168 0)
(1.01971 0.000215866 0)
(1.01971 0.000216854 0)
(1.0197 0.000218141 0)
(1.0197 0.000219801 0)
(1.01969 0.000221856 0)
(1.01968 0.000223719 0)
(1.01966 0.000226109 0)
(1.01963 0.000230524 0)
(1.0196 0.000271497 0)
(1.01935 0.000444067 0)
(1.01899 0.00104957 0)
(1.01589 0.00176924 0)
(0.988573 0.109968 0)
(1.06795 0.0309656 0)
(1.0256 0.00569506 0)
(1.03851 0.000544518 0)
(1.03318 -0.000410656 0)
(1.03547 0.000294417 0)
(1.03434 0.000367274 0)
(1.03445 0.000461693 0)
(1.03402 0.000392203 0)
(1.03386 0.000348994 0)
(1.03364 0.000292194 0)
(1.03348 0.000251138 0)
(1.03334 0.000213972 0)
(1.03323 0.00018481 0)
(1.03313 0.000161103 0)
(1.03305 0.000142507 0)
(1.03298 0.000126939 0)
(1.03292 0.000114 0)
(1.03286 0.000102862 0)
(1.03281 9.33107e-05 0)
(1.03277 8.49772e-05 0)
(1.03274 7.77124e-05 0)
(1.03271 7.12791e-05 0)
(1.03268 6.57536e-05 0)
(1.03266 6.07129e-05 0)
(1.03264 5.64298e-05 0)
(1.03262 5.25605e-05 0)
(1.03261 4.93679e-05 0)
(1.0326 4.66766e-05 0)
(1.03259 4.45089e-05 0)
(1.03258 4.26243e-05 0)
(1.03257 4.11017e-05 0)
(1.03257 3.9802e-05 0)
(1.03257 3.88197e-05 0)
(1.03256 3.7896e-05 0)
(1.03256 3.72965e-05 0)
(1.03256 3.66613e-05 0)
(1.03255 3.6282e-05 0)
(1.03255 3.58413e-05 0)
(1.03255 3.56075e-05 0)
(1.03255 3.52943e-05 0)
(1.03255 3.51413e-05 0)
(1.03255 3.49247e-05 0)
(1.03255 3.48468e-05 0)
(1.03255 3.46748e-05 0)
(1.03255 3.46695e-05 0)
(1.03255 3.45054e-05 0)
(1.03255 3.45518e-05 0)
(1.03255 3.44483e-05 0)
(1.03255 3.4487e-05 0)
(1.03255 3.44266e-05 0)
(1.03255 3.44785e-05 0)
(1.03255 3.44225e-05 0)
(1.03255 3.45181e-05 0)
(1.03255 3.44315e-05 0)
(1.03255 3.44953e-05 0)
(1.03255 3.44365e-05 0)
(1.03255 3.45083e-05 0)
(1.03255 3.44116e-05 0)
(1.03255 3.44736e-05 0)
(1.03255 3.43954e-05 0)
(1.03255 3.44455e-05 0)
(1.03255 3.43738e-05 0)
(1.03255 3.44161e-05 0)
(1.03255 3.43334e-05 0)
(1.03255 3.44051e-05 0)
(1.03255 3.43387e-05 0)
(1.03255 3.4398e-05 0)
(1.03255 3.4347e-05 0)
(1.03255 3.44229e-05 0)
(1.03255 3.43676e-05 0)
(1.03255 3.44386e-05 0)
(1.03255 3.43914e-05 0)
(1.03255 3.44422e-05 0)
(1.03255 3.44042e-05 0)
(1.03255 3.44619e-05 0)
(1.03255 3.44113e-05 0)
(1.03255 3.449e-05 0)
(1.03255 3.44672e-05 0)
(1.03255 3.45469e-05 0)
(1.03255 3.45593e-05 0)
(1.03255 3.46787e-05 0)
(1.03255 3.47579e-05 0)
(1.03255 3.49581e-05 0)
(1.03255 3.51478e-05 0)
(1.03255 3.55144e-05 0)
(1.03254 3.59434e-05 0)
(1.03254 3.66077e-05 0)
(1.03254 3.74846e-05 0)
(1.03254 3.87335e-05 0)
(1.03253 4.0374e-05 0)
(1.03253 4.25253e-05 0)
(1.03252 4.5338e-05 0)
(1.03251 4.82393e-05 0)
(1.03249 5.32436e-05 0)
(1.03246 6.2353e-05 0)
(1.03242 0.000123556 0)
(1.03218 0.000349187 0)
(1.03186 0.00116813 0)
(1.02902 0.00229699 0)
(0.986397 0.0982887 0)
(1.06823 0.0321907 0)
(1.02898 0.00651951 0)
(1.04245 0.000498589 0)
(1.03682 -0.000476282 0)
(1.03924 0.000273408 0)
(1.03811 0.000377811 0)
(1.03832 0.000478217 0)
(1.03795 0.000404085 0)
(1.03785 0.000354661 0)
(1.03767 0.000291752 0)
(1.03756 0.000245966 0)
(1.03745 0.000205212 0)
(1.03737 0.000173537 0)
(1.03729 0.000147196 0)
(1.03723 0.000125892 0)
(1.03717 0.000108038 0)
(1.03712 9.31845e-05 0)
(1.03708 8.03896e-05 0)
(1.03704 6.94144e-05 0)
(1.03701 5.98326e-05 0)
(1.03698 5.14687e-05 0)
(1.03696 4.40411e-05 0)
(1.03694 3.76454e-05 0)
(1.03692 3.18107e-05 0)
(1.0369 2.68184e-05 0)
(1.03689 2.23173e-05 0)
(1.03688 1.85875e-05 0)
(1.03687 1.54212e-05 0)
(1.03686 1.28575e-05 0)
(1.03685 1.0615e-05 0)
(1.03685 8.79787e-06 0)
(1.03684 7.23563e-06 0)
(1.03684 6.04548e-06 0)
(1.03684 4.92686e-06 0)
(1.03683 4.17551e-06 0)
(1.03683 3.40802e-06 0)
(1.03683 2.92764e-06 0)
(1.03683 2.38246e-06 0)
(1.03683 2.07773e-06 0)
(1.03683 1.68194e-06 0)
(1.03683 1.48996e-06 0)
(1.03682 1.22834e-06 0)
(1.03682 1.12713e-06 0)
(1.03682 9.1745e-07 0)
(1.03682 9.01857e-07 0)
(1.03682 7.0951e-07 0)
(1.03682 7.49326e-07 0)
(1.03682 6.35145e-07 0)
(1.03682 6.72936e-07 0)
(1.03682 6.00675e-07 0)
(1.03682 6.63689e-07 0)
(1.03682 5.97118e-07 0)
(1.03682 7.11226e-07 0)
(1.03682 6.1997e-07 0)
(1.03682 6.84667e-07 0)
(1.03682 6.14379e-07 0)
(1.03682 6.96317e-07 0)
(1.03682 5.85535e-07 0)
(1.03682 6.51654e-07 0)
(1.03682 5.65004e-07 0)
(1.03682 6.21953e-07 0)
(1.03682 5.41836e-07 0)
(1.03682 5.93541e-07 0)
(1.03682 4.99767e-07 0)
(1.03682 5.80583e-07 0)
(1.03682 5.11043e-07 0)
(1.03682 5.78991e-07 0)
(1.03682 5.19691e-07 0)
(1.03682 6.05213e-07 0)
(1.03682 5.41201e-07 0)
(1.03682 6.17565e-07 0)
(1.03682 5.64709e-07 0)
(1.03682 6.19988e-07 0)
(1.03682 5.75995e-07 0)
(1.03682 6.44836e-07 0)
(1.03682 5.88028e-07 0)
(1.03682 6.78683e-07 0)
(1.03682 6.59451e-07 0)
(1.03682 7.51082e-07 0)
(1.03682 7.6898e-07 0)
(1.03682 9.09562e-07 0)
(1.03682 1.0036e-06 0)
(1.03682 1.23701e-06 0)
(1.03682 1.46151e-06 0)
(1.03682 1.89742e-06 0)
(1.03682 2.43252e-06 0)
(1.03682 3.23254e-06 0)
(1.03682 4.27451e-06 0)
(1.03682 5.75446e-06 0)
(1.03681 7.70709e-06 0)
(1.03681 1.02996e-05 0)
(1.0368 1.38514e-05 0)
(1.03679 1.78739e-05 0)
(1.03678 2.55662e-05 0)
(1.03674 3.93806e-05 0)
(1.0367 0.00011931 0)
(1.03647 0.000383869 0)
(1.03621 0.00139849 0)
(1.03382 0.00284679 0)
(0.983101 0.0876831 0)
(1.06611 0.0325028 0)
(1.0296 0.00711026 0)
(1.04348 0.000474418 0)
(1.03764 -0.000489845 0)
(1.04017 0.000278268 0)
(1.03905 0.000412707 0)
(1.03935 0.000517032 0)
(1.03903 0.000440478 0)
(1.03899 0.00038625 0)
(1.03886 0.000318587 0)
(1.03879 0.000268774 0)
(1.03871 0.000224683 0)
(1.03865 0.000190352 0)
(1.0386 0.000161797 0)
(1.03855 0.000138611 0)
(1.03851 0.000119191 0)
(1.03848 0.000103045 0)
(1.03844 8.91382e-05 0)
(1.03842 7.72222e-05 0)
(1.03839 6.68445e-05 0)
(1.03837 5.77975e-05 0)
(1.03835 4.97718e-05 0)
(1.03834 4.28811e-05 0)
(1.03832 3.66384e-05 0)
(1.03831 3.13304e-05 0)
(1.0383 2.6589e-05 0)
(1.03829 2.26137e-05 0)
(1.03828 1.90816e-05 0)
(1.03828 1.62017e-05 0)
(1.03827 1.36703e-05 0)
(1.03827 1.1608e-05 0)
(1.03826 9.82495e-06 0)
(1.03826 8.45487e-06 0)
(1.03826 7.16677e-06 0)
(1.03826 6.27819e-06 0)
(1.03825 5.38803e-06 0)
(1.03825 4.81152e-06 0)
(1.03825 4.15973e-06 0)
(1.03825 3.7908e-06 0)
(1.03825 3.34087e-06 0)
(1.03825 3.11487e-06 0)
(1.03825 2.81543e-06 0)
(1.03825 2.69323e-06 0)
(1.03825 2.45161e-06 0)
(1.03825 2.42688e-06 0)
(1.03825 2.21337e-06 0)
(1.03825 2.24351e-06 0)
(1.03825 2.11867e-06 0)
(1.03825 2.15338e-06 0)
(1.03825 2.06971e-06 0)
(1.03825 2.14298e-06 0)
(1.03825 2.06631e-06 0)
(1.03825 2.19212e-06 0)
(1.03825 2.10162e-06 0)
(1.03825 2.1661e-06 0)
(1.03825 2.08277e-06 0)
(1.03825 2.17328e-06 0)
(1.03825 2.05485e-06 0)
(1.03825 2.12405e-06 0)
(1.03825 2.03133e-06 0)
(1.03825 2.09278e-06 0)
(1.03825 2.00739e-06 0)
(1.03825 2.06832e-06 0)
(1.03825 1.96567e-06 0)
(1.03825 2.05073e-06 0)
(1.03825 1.97927e-06 0)
(1.03825 2.05437e-06 0)
(1.03825 1.9863e-06 0)
(1.03825 2.07683e-06 0)
(1.03825 2.00561e-06 0)
(1.03825 2.08393e-06 0)
(1.03825 2.02727e-06 0)
(1.03825 2.08591e-06 0)
(1.03825 2.03662e-06 0)
(1.03825 2.11661e-06 0)
(1.03825 2.05771e-06 0)
(1.03825 2.15739e-06 0)
(1.03825 2.14385e-06 0)
(1.03825 2.24642e-06 0)
(1.03825 2.26941e-06 0)
(1.03825 2.42614e-06 0)
(1.03825 2.53052e-06 0)
(1.03825 2.78846e-06 0)
(1.03825 3.04048e-06 0)
(1.03825 3.52334e-06 0)
(1.03825 4.13552e-06 0)
(1.03825 5.06408e-06 0)
(1.03824 6.25213e-06 0)
(1.03824 7.92973e-06 0)
(1.03824 1.01495e-05 0)
(1.03824 1.31268e-05 0)
(1.03823 1.7372e-05 0)
(1.03822 2.2521e-05 0)
(1.03821 3.27011e-05 0)
(1.03818 5.07333e-05 0)
(1.03814 0.000147061 0)
(1.03794 0.000446118 0)
(1.03774 0.00162565 0)
(1.03587 0.0033129 0)
(0.980015 0.0779769 0)
(1.06349 0.0320489 0)
(1.02938 0.0074539 0)
(1.04357 0.000438375 0)
(1.03756 -0.000494549 0)
(1.04018 0.000273468 0)
(1.03906 0.00043459 0)
(1.03945 0.000540635 0)
(1.03918 0.000463894 0)
(1.0392 0.000406581 0)
(1.0391 0.000336037 0)
(1.03907 0.000283528 0)
(1.03902 0.000237149 0)
(1.03899 0.000200884 0)
(1.03895 0.000170829 0)
(1.03892 0.000146453 0)
(1.0389 0.000126039 0)
(1.03888 0.000109067 0)
(1.03886 9.44314e-05 0)
(1.03884 8.18777e-05 0)
(1.03882 7.0952e-05 0)
(1.03881 6.14116e-05 0)
(1.0388 5.29242e-05 0)
(1.03879 4.56215e-05 0)
(1.03878 3.90143e-05 0)
(1.03877 3.33829e-05 0)
(1.03876 2.83474e-05 0)
(1.03876 2.41142e-05 0)
(1.03875 2.03228e-05 0)
(1.03875 1.7219e-05 0)
(1.03874 1.4485e-05 0)
(1.03874 1.22459e-05 0)
(1.03874 1.03079e-05 0)
(1.03873 8.81503e-06 0)
(1.03873 7.41514e-06 0)
(1.03873 6.44264e-06 0)
(1.03873 5.47708e-06 0)
(1.03873 4.85439e-06 0)
(1.03873 4.15035e-06 0)
(1.03873 3.74875e-06 0)
(1.03873 3.26023e-06 0)
(1.03872 2.99596e-06 0)
(1.03872 2.65993e-06 0)
(1.03872 2.52011e-06 0)
(1.03872 2.25275e-06 0)
(1.03872 2.21978e-06 0)
(1.03872 1.98874e-06 0)
(1.03872 2.0071e-06 0)
(1.03872 1.87146e-06 0)
(1.03872 1.90263e-06 0)
(1.03872 1.80816e-06 0)
(1.03872 1.88975e-06 0)
(1.03872 1.80482e-06 0)
(1.03872 1.93577e-06 0)
(1.03872 1.84981e-06 0)
(1.03872 1.91515e-06 0)
(1.03872 1.81867e-06 0)
(1.03872 1.91672e-06 0)
(1.03872 1.79663e-06 0)
(1.03872 1.86791e-06 0)
(1.03872 1.77109e-06 0)
(1.03872 1.83497e-06 0)
(1.03872 1.74626e-06 0)
(1.03872 1.81533e-06 0)
(1.03872 1.70501e-06 0)
(1.03872 1.78976e-06 0)
(1.03872 1.71622e-06 0)
(1.03872 1.79651e-06 0)
(1.03872 1.71919e-06 0)
(1.03872 1.81029e-06 0)
(1.03872 1.73336e-06 0)
(1.03872 1.81128e-06 0)
(1.03872 1.75233e-06 0)
(1.03872 1.81396e-06 0)
(1.03872 1.76046e-06 0)
(1.03872 1.85152e-06 0)
(1.03872 1.79496e-06 0)
(1.03872 1.90136e-06 0)
(1.03872 1.89497e-06 0)
(1.03872 2.00801e-06 0)
(1.03872 2.03594e-06 0)
(1.03872 2.20488e-06 0)
(1.03872 2.31636e-06 0)
(1.03872 2.59104e-06 0)
(1.03872 2.86516e-06 0)
(1.03872 3.39316e-06 0)
(1.03872 4.03566e-06 0)
(1.03872 5.01414e-06 0)
(1.03872 6.27036e-06 0)
(1.03872 8.06291e-06 0)
(1.03872 1.04651e-05 0)
(1.03872 1.3735e-05 0)
(1.03871 1.85756e-05 0)
(1.0387 2.47869e-05 0)
(1.03869 3.75814e-05 0)
(1.03867 5.99066e-05 0)
(1.03863 0.000170637 0)
(1.03847 0.000496024 0)
(1.03834 0.00179845 0)
(1.03701 0.00365052 0)
(0.97743 0.0691353 0)
(1.06097 0.0309905 0)
(1.02893 0.00757558 0)
(1.04334 0.000393726 0)
(1.03722 -0.000494091 0)
(1.0399 0.000259448 0)
(1.03879 0.000442357 0)
(1.03925 0.000547943 0)
(1.03903 0.000473033 0)
(1.0391 0.000414424 0)
(1.03904 0.000343027 0)
(1.03904 0.000289401 0)
(1.03902 0.000242129 0)
(1.03901 0.000205037 0)
(1.03899 0.000174353 0)
(1.03898 0.000149464 0)
(1.03897 0.000128612 0)
(1.03896 0.00011128 0)
(1.03895 9.63096e-05 0)
(1.03895 8.3443e-05 0)
(1.03894 7.22484e-05 0)
(1.03893 6.24517e-05 0)
(1.03893 5.37032e-05 0)
(1.03892 4.61537e-05 0)
(1.03891 3.93229e-05 0)
(1.03891 3.34818e-05 0)
(1.03891 2.82385e-05 0)
(1.0389 2.38294e-05 0)
(1.0389 1.98856e-05 0)
(1.0389 1.66467e-05 0)
(1.03889 1.37941e-05 0)
(1.03889 1.14461e-05 0)
(1.03889 9.41632e-06 0)
(1.03889 7.85763e-06 0)
(1.03889 6.39849e-06 0)
(1.03889 5.39013e-06 0)
(1.03889 4.39042e-06 0)
(1.03888 3.76165e-06 0)
(1.03888 3.05194e-06 0)
(1.03888 2.64084e-06 0)
(1.03888 2.13229e-06 0)
(1.03888 1.84708e-06 0)
(1.03888 1.49119e-06 0)
(1.03888 1.33802e-06 0)
(1.03888 1.0463e-06 0)
(1.03888 1.00353e-06 0)
(1.03888 7.51492e-07 0)
(1.03888 7.57165e-07 0)
(1.03888 6.11298e-07 0)
(1.03888 6.40129e-07 0)
(1.03888 5.35562e-07 0)
(1.03888 6.24342e-07 0)
(1.03888 5.33955e-07 0)
(1.03888 6.65242e-07 0)
(1.03888 5.85855e-07 0)
(1.03888 6.55007e-07 0)
(1.03888 5.46797e-07 0)
(1.03888 6.50928e-07 0)
(1.03888 5.33108e-07 0)
(1.03888 6.05963e-07 0)
(1.03888 5.06478e-07 0)
(1.03888 5.70896e-07 0)
(1.03888 4.80144e-07 0)
(1.03888 5.54748e-07 0)
(1.03888 4.3866e-07 0)
(1.03888 5.19468e-07 0)
(1.03888 4.42684e-07 0)
(1.03888 5.26084e-07 0)
(1.03888 4.39712e-07 0)
(1.03888 5.27815e-07 0)
(1.03888 4.46794e-07 0)
(1.03888 5.2264e-07 0)
(1.03888 4.62676e-07 0)
(1.03888 5.27057e-07 0)
(1.03888 4.7087e-07 0)
(1.03888 5.72616e-07 0)
(1.03888 5.22294e-07 0)
(1.03888 6.336e-07 0)
(1.03888 6.34624e-07 0)
(1.03888 7.57878e-07 0)
(1.03888 7.91912e-07 0)
(1.03888 9.74843e-07 0)
(1.03888 1.09296e-06 0)
(1.03888 1.37955e-06 0)
(1.03888 1.66553e-06 0)
(1.03888 2.20745e-06 0)
(1.03888 2.84993e-06 0)
(1.03888 3.81515e-06 0)
(1.03888 5.07484e-06 0)
(1.03888 6.90855e-06 0)
(1.03888 9.41239e-06 0)
(1.03888 1.28804e-05 0)
(1.03887 1.81933e-05 0)
(1.03887 2.53302e-05 0)
(1.03886 4.04979e-05 0)
(1.03884 6.66043e-05 0)
(1.03881 0.000188541 0)
(1.0387 0.000530314 0)
(1.03863 0.00191145 0)
(1.03784 0.00385967 0)
(0.975334 0.0610616 0)
(1.0587 0.0294543 0)
(1.02847 0.00750411 0)
(1.04304 0.00034692 0)
(1.03682 -0.000486793 0)
(1.03955 0.000240074 0)
(1.03844 0.000438902 0)
(1.03897 0.000542133 0)
(1.03879 0.000470659 0)
(1.03891 0.000412361 0)
(1.03889 0.000341903 0)
(1.03892 0.000288584 0)
(1.03892 0.000241668 0)
(1.03893 0.000204754 0)
(1.03894 0.00017424 0)
(1.03894 0.000149469 0)
(1.03894 0.000128704 0)
(1.03895 0.000111453 0)
(1.03895 9.65302e-05 0)
(1.03895 8.36722e-05 0)
(1.03895 7.24893e-05 0)
(1.03895 6.26872e-05 0)
(1.03895 5.39028e-05 0)
(1.03895 4.63056e-05 0)
(1.03894 3.94308e-05 0)
(1.03894 3.3543e-05 0)
(1.03894 2.82355e-05 0)
(1.03894 2.37684e-05 0)
(1.03894 1.97704e-05 0)
(1.03894 1.64749e-05 0)
(1.03894 1.35737e-05 0)
(1.03894 1.11738e-05 0)
(1.03894 9.09732e-06 0)
(1.03894 7.51126e-06 0)
(1.03894 6.02048e-06 0)
(1.03894 4.99479e-06 0)
(1.03894 3.97162e-06 0)
(1.03894 3.33855e-06 0)
(1.03894 2.62535e-06 0)
(1.03894 2.21238e-06 0)
(1.03894 1.71759e-06 0)
(1.03893 1.43266e-06 0)
(1.03893 1.07753e-06 0)
(1.03893 9.19426e-07 0)
(1.03893 6.14166e-07 0)
(1.03893 5.6704e-07 0)
(1.03893 3.06726e-07 0)
(1.03893 3.01377e-07 0)
(1.03893 1.45874e-07 0)
(1.03893 1.74969e-07 0)
(1.03893 6.16163e-08 0)
(1.03893 1.57705e-07 0)
(1.03893 6.44635e-08 0)
(1.03893 1.94764e-07 0)
(1.03893 1.21973e-07 0)
(1.03893 1.98904e-07 0)
(1.03893 8.08021e-08 0)
(1.03893 1.89232e-07 0)
(1.03893 7.42107e-08 0)
(1.03893 1.49334e-07 0)
(1.03893 4.70743e-08 0)
(1.03893 1.1117e-07 0)
(1.03893 1.8785e-08 0)
(1.03893 9.5762e-08 0)
(1.03893 -2.24742e-08 0)
(1.03893 5.19379e-08 0)
(1.03893 -2.89437e-08 0)
(1.03893 5.52182e-08 0)
(1.03893 -3.82843e-08 0)
(1.03893 4.40481e-08 0)
(1.03893 -3.89233e-08 0)
(1.03893 3.29837e-08 0)
(1.03893 -2.65215e-08 0)
(1.03893 3.94099e-08 0)
(1.03893 -1.71824e-08 0)
(1.03893 9.37955e-08 0)
(1.03893 5.20397e-08 0)
(1.03893 1.67337e-07 0)
(1.03893 1.74289e-07 0)
(1.03893 3.05106e-07 0)
(1.03893 3.3943e-07 0)
(1.03893 5.24128e-07 0)
(1.03893 6.41928e-07 0)
(1.03893 9.28242e-07 0)
(1.03893 1.21063e-06 0)
(1.03893 1.72378e-06 0)
(1.03893 2.34629e-06 0)
(1.03893 3.30156e-06 0)
(1.03893 4.55595e-06 0)
(1.03893 6.40207e-06 0)
(1.03893 8.95844e-06 0)
(1.03893 1.25494e-05 0)
(1.03893 1.82065e-05 0)
(1.03893 2.60807e-05 0)
(1.03892 4.31508e-05 0)
(1.03891 7.21632e-05 0)
(1.03889 0.000201474 0)
(1.03882 0.000549965 0)
(1.03882 0.00196693 0)
(1.03856 0.00394858 0)
(0.973652 0.0536351 0)
(1.05672 0.0275342 0)
(1.02804 0.00726343 0)
(1.04273 0.000301039 0)
(1.03644 -0.000472293 0)
(1.03919 0.000217231 0)
(1.0381 0.000425461 0)
(1.03868 0.000524654 0)
(1.03854 0.000457849 0)
(1.0387 0.000401264 0)
(1.03871 0.000333282 0)
(1.03877 0.000281505 0)
(1.03879 0.000236021 0)
(1.03882 0.000200145 0)
(1.03885 0.000170502 0)
(1.03887 0.00014642 0)
(1.03888 0.000126217 0)
(1.03889 0.000109446 0)
(1.03891 9.492e-05 0)
(1.03891 8.23659e-05 0)
(1.03892 7.14504e-05 0)
(1.03893 6.18756e-05 0)
(1.03893 5.32674e-05 0)
(1.03894 4.58093e-05 0)
(1.03894 3.90573e-05 0)
(1.03894 3.32719e-05 0)
(1.03895 2.8035e-05 0)
(1.03895 2.36205e-05 0)
(1.03895 1.96625e-05 0)
(1.03895 1.63887e-05 0)
(1.03895 1.35076e-05 0)
(1.03895 1.11157e-05 0)
(1.03895 9.03834e-06 0)
(1.03895 7.46432e-06 0)
(1.03895 5.97198e-06 0)
(1.03895 4.95006e-06 0)
(1.03895 3.91859e-06 0)
(1.03895 3.28644e-06 0)
(1.03895 2.57523e-06 0)
(1.03895 2.159e-06 0)
(1.03895 1.67234e-06 0)
(1.03895 1.38498e-06 0)
(1.03895 1.03193e-06 0)
(1.03895 8.7552e-07 0)
(1.03895 5.67542e-07 0)
(1.03895 5.21422e-07 0)
(1.03895 2.66978e-07 0)
(1.03895 2.54524e-07 0)
(1.03895 9.28314e-08 0)
(1.03895 1.25431e-07 0)
(1.03895 8.00263e-09 0)
(1.03895 1.09125e-07 0)
(1.03895 1.83862e-08 0)
(1.03895 1.44639e-07 0)
(1.03895 7.76043e-08 0)
(1.03895 1.64739e-07 0)
(1.03895 4.0888e-08 0)
(1.03895 1.49695e-07 0)
(1.03895 3.95485e-08 0)
(1.03895 1.1495e-07 0)
(1.03895 1.27325e-08 0)
(1.03895 7.57957e-08 0)
(1.03895 -2.04143e-08 0)
(1.03895 5.77463e-08 0)
(1.03895 -6.1118e-08 0)
(1.03895 6.76742e-09 0)
(1.03895 -7.9601e-08 0)
(1.03895 4.63176e-09 0)
(1.03895 -9.36991e-08 0)
(1.03895 -1.69294e-08 0)
(1.03895 -1.00972e-07 0)
(1.03895 -3.22189e-08 0)
(1.03895 -9.15266e-08 0)
(1.03895 -2.26419e-08 0)
(1.03895 -7.94453e-08 0)
(1.03895 3.74841e-08 0)
(1.03895 4.94479e-09 0)
(1.03895 1.2074e-07 0)
(1.03895 1.30321e-07 0)
(1.03895 2.64698e-07 0)
(1.03895 2.93226e-07 0)
(1.03895 4.66909e-07 0)
(1.03895 5.77297e-07 0)
(1.03895 8.51994e-07 0)
(1.03895 1.12311e-06 0)
(1.03895 1.61908e-06 0)
(1.03895 2.22692e-06 0)
(1.03895 3.17349e-06 0)
(1.03895 4.41184e-06 0)
(1.03895 6.24067e-06 0)
(1.03895 8.79791e-06 0)
(1.03895 1.24312e-05 0)
(1.03896 1.82832e-05 0)
(1.03896 2.66571e-05 0)
(1.03895 4.5042e-05 0)
(1.03895 7.59334e-05 0)
(1.03893 0.000208576 0)
(1.03892 0.000554668 0)
(1.03898 0.00196676 0)
(1.03921 0.00392525 0)
(0.972303 0.0467487 0)
(1.055 0.0253028 0)
(1.02767 0.00687437 0)
(1.04245 0.000257517 0)
(1.0361 -0.000450482 0)
(1.03886 0.000192246 0)
(1.03777 0.000402975 0)
(1.03841 0.000496575 0)
(1.0383 0.00043537 0)
(1.03849 0.000381725 0)
(1.03853 0.000317553 0)
(1.03862 0.000268402 0)
(1.03867 0.000225292 0)
(1.03872 0.000191218 0)
(1.03875 0.000163071 0)
(1.03879 0.000140188 0)
(1.03881 0.000120972 0)
(1.03884 0.000105039 0)
(1.03886 9.12222e-05 0)
(1.03887 7.92407e-05 0)
(1.03889 6.88228e-05 0)
(1.0389 5.96871e-05 0)
(1.03891 5.145e-05 0)
(1.03892 4.43008e-05 0)
(1.03893 3.78202e-05 0)
(1.03893 3.22685e-05 0)
(1.03894 2.72232e-05 0)
(1.03894 2.2964e-05 0)
(1.03894 1.91366e-05 0)
(1.03895 1.59637e-05 0)
(1.03895 1.3173e-05 0)
(1.03895 1.08532e-05 0)
(1.03895 8.82566e-06 0)
(1.03895 7.30699e-06 0)
(1.03895 5.85125e-06 0)
(1.03896 4.86323e-06 0)
(1.03896 3.84993e-06 0)
(1.03896 3.23557e-06 0)
(1.03896 2.54318e-06 0)
(1.03896 2.13264e-06 0)
(1.03896 1.65681e-06 0)
(1.03896 1.37048e-06 0)
(1.03896 1.0192e-06 0)
(1.03896 8.67206e-07 0)
(1.03896 5.56281e-07 0)
(1.03896 5.09189e-07 0)
(1.03896 2.58376e-07 0)
(1.03896 2.43502e-07 0)
(1.03896 7.98081e-08 0)
(1.03896 1.19089e-07 0)
(1.03896 2.81497e-09 0)
(1.03896 1.0661e-07 0)
(1.03896 2.40496e-08 0)
(1.03896 1.43193e-07 0)
(1.03896 7.99648e-08 0)
(1.03896 1.78071e-07 0)
(1.03896 5.27108e-08 0)
(1.03896 1.57705e-07 0)
(1.03896 5.35237e-08 0)
(1.03896 1.27062e-07 0)
(1.03896 2.77922e-08 0)
(1.03896 8.96141e-08 0)
(1.03896 -1.23414e-08 0)
(1.03896 6.67068e-08 0)
(1.03896 -5.15066e-08 0)
(1.03896 1.14312e-08 0)
(1.03896 -8.12436e-08 0)
(1.03896 3.32017e-09 0)
(1.03896 -9.68378e-08 0)
(1.03896 -2.38562e-08 0)
(1.03896 -1.0856e-07 0)
(1.03896 -4.16402e-08 0)
(1.03896 -1.01376e-07 0)
(1.03896 -2.77112e-08 0)
(1.03896 -8.59853e-08 0)
(1.03896 3.23129e-08 0)
(1.03896 7.79145e-09 0)
(1.03896 1.19954e-07 0)
(1.03896 1.27867e-07 0)
(1.03896 2.62828e-07 0)
(1.03896 2.86547e-07 0)
(1.03896 4.5219e-07 0)
(1.03896 5.55486e-07 0)
(1.03896 8.17178e-07 0)
(1.03896 1.07371e-06 0)
(1.03896 1.55194e-06 0)
(1.03896 2.13607e-06 0)
(1.03896 3.05567e-06 0)
(1.03896 4.25149e-06 0)
(1.03896 6.02147e-06 0)
(1.03896 8.51752e-06 0)
(1.03896 1.21018e-05 0)
(1.03897 1.79796e-05 0)
(1.03897 2.65771e-05 0)
(1.03897 4.56141e-05 0)
(1.03897 7.72782e-05 0)
(1.03897 0.000209175 0)
(1.03901 0.000544261 0)
(1.03912 0.00191353 0)
(1.03982 0.0037983 0)
(0.971223 0.0403131 0)
(1.05353 0.0228192 0)
(1.02736 0.00635604 0)
(1.04219 0.000217127 0)
(1.0358 -0.000421136 0)
(1.03856 0.000166372 0)
(1.03748 0.000372586 0)
(1.03816 0.000459129 0)
(1.03808 0.000404217 0)
(1.03831 0.000354576 0)
(1.03837 0.000295365 0)
(1.03848 0.000249794 0)
(1.03855 0.000209888 0)
(1.03861 0.000178295 0)