/*--------------------------------*- C++ -*----------------------------------*\
  =========                 |
  \\      /  F ield         | OpenFOAM: The Open Source CFD Toolbox
   \\    /   O peration     | Website:  https://openfoam.org
    \\  /    A nd           | Version:  7
     \\/     M anipulation  |
\*---------------------------------------------------------------------------*/
FoamFile
{
    version     2.0;
    format      ascii;
    class       surfaceScalarField;
    location    "0.5";
    object      phi;
}
// * * * * * * * * * * * * * * * * * * * * * * * * * * * * * * * * * * * * * //

dimensions      [0 3 -1 0 0 0 0];

internalField   nonuniform List<scalar> 
7860
(
0.00283464
0.00216536
0.00262142
0.00021321
0.0026088
1.26205e-05
0.00260604
2.7702e-06
0.00260851
-2.46996e-06
0.00260701
1.49719e-06
0.0026057
1.30832e-06
0.00260394
1.76119e-06
0.00260255
1.38453e-06
0.00260134
1.21317e-06
0.00260039
9.52721e-07
0.00259962
7.67868e-07
0.00259902
5.93699e-07
0.00259857
4.57176e-07
0.00259823
3.39881e-07
0.00259798
2.49383e-07
0.0025978
1.81232e-07
0.00259767
1.2832e-07
0.00259758
8.67158e-08
0.00259752
5.96163e-08
0.00259748
4.16731e-08
0.00259745
2.8258e-08
0.00259743
1.73757e-08
0.00259742
1.13586e-08
0.00259741
7.41319e-09
0.00259741
5.32023e-09
0.00259741
3.54238e-09
0.0025974
2.15488e-09
0.0025974
1.00561e-09
0.0025974
8.00059e-10
0.0025974
8.73775e-10
0.0025974
7.14193e-10
0.0025974
6.81519e-11
0.0025974
2.90573e-10
0.0025974
1.87292e-10
0.0025974
4.46274e-11
0.0025974
1.46685e-10
0.0025974
3.21171e-10
0.0025974
1.86203e-10
0.0025974
-8.03234e-11
0.0025974
-2.3604e-10
0.0025974
5.07383e-10
0.0025974
9.09121e-11
0.0025974
-1.56847e-10
0.0025974
-2.71969e-10
0.0025974
1.58295e-10
0.0025974
2.65996e-11
0.0025974
-1.83858e-10
0.0025974
-2.23373e-10
0.0025974
-1.6703e-12
0.0025974
9.83231e-13
0.0025974
1.12803e-10
0.0025974
-9.03075e-11
0.0025974
2.2028e-11
0.0025974
-2.6457e-11
0.0025974
2.54217e-10
0.0025974
1.87273e-10
0.0025974
1.51126e-10
0.0025974
-1.32146e-10
0.0025974
1.46879e-10
0.0025974
2.35715e-10
0.0025974
1.92538e-10
0.0025974
3.63579e-12
0.0025974
-3.16582e-12
0.0025974
5.64807e-11
0.0025974
6.17504e-11
0.0025974
-7.81979e-11
0.0025974
-1.73369e-10
0.0025974
-8.47911e-11
0.0025974
2.04291e-11
0.0025974
3.3642e-11
0.0025974
-7.33463e-11
0.0025974
-4.71454e-11
0.0025974
4.03496e-11
0.0025974
-8.72581e-11
0.0025974
1.51857e-12
0.0025974
-6.07761e-11
0.0025974
-3.56902e-11
0.0025974
-2.21493e-11
0.0025974
8.74007e-11
0.0025974
1.1678e-10
0.0025974
2.64842e-10
0.0025974
4.74095e-10
0.0025974
7.85528e-10
0.00259739
1.21262e-09
0.00259739
1.88689e-09
0.00259739
3.05609e-09
0.00259738
4.95301e-09
0.00259738
7.58301e-09
0.00259737
1.15036e-08
0.00259735
1.70902e-08
0.00259733
2.39899e-08
0.00259729
3.18798e-08
0.00259726
3.66009e-08
0.00259722
3.37813e-08
0.0025972
2.46158e-08
0.00259709
1.06287e-07
0.00259639
7.04002e-07
0.00259377
2.61637e-06
-1.17777e-06
0.00456827
0.00259709
0.00437572
0.000405769
0.00434651
4.18258e-05
0.00434238
6.89965e-06
0.00434504
-5.13028e-06
0.00434319
3.34446e-06
0.00434127
3.23024e-06
0.00433879
4.24307e-06
0.00433675
3.41842e-06
0.00433497
2.99211e-06
0.00433355
2.37188e-06
0.0043324
1.91619e-06
0.00433151
1.48946e-06
0.00433081
1.14989e-06
0.00433029
8.62576e-07
0.00432991
6.36556e-07
0.00432963
4.59119e-07
0.00432943
3.2645e-07
0.00432929
2.26861e-07
0.00432919
1.56625e-07
0.00432913
1.06548e-07
0.00432908
7.10372e-08
0.00432905
4.56725e-08
0.00432903
3.07749e-08
0.00432902
2.04912e-08
0.00432901
1.4017e-08
0.00432901
8.61521e-09
0.00432901
5.06491e-09
0.004329
3.18908e-09
0.004329
2.50313e-09
0.004329
1.89943e-09
0.004329
1.65102e-09
0.004329
7.01465e-10
0.004329
9.26115e-10
0.004329
6.7098e-10
0.004329
3.10492e-10
0.004329
3.0117e-11
0.004329
3.67367e-10
0.004329
3.20185e-10
0.004329
1.71171e-10
0.004329
-2.55653e-10
0.004329
5.9886e-10
0.004329
1.57367e-10
0.004329
1.32179e-10
0.004329
-3.46453e-10
0.004329
-8.80195e-11
0.004329
-3.77841e-10
0.004329
-5.25526e-10
0.004329
-6.12063e-10
0.004329
-1.64706e-10
0.004329
-4.06583e-10
0.004329
-1.42454e-10
0.004329
-1.2099e-10
0.004329
2.56832e-10
0.004329
-1.02565e-10
0.004329
2.59948e-10
0.004329
1.84576e-10
0.004329
3.80515e-10
0.004329
-8.81541e-11
0.004329
2.20148e-10
0.004329
2.94024e-10
0.004329
4.38817e-10
0.004329
1.54248e-10
0.004329
1.72859e-10
0.004329
3.63672e-11
0.004329
1.05346e-10
0.004329
-1.46284e-10
0.004329
-1.40337e-10
0.004329
-2.36616e-10
0.004329
-6.92497e-11
0.004329
-1.17207e-10
0.004329
-5.49109e-11
0.004329
-1.85064e-10
0.004329
-1.35776e-11
0.004329
-2.15218e-10
0.004329
1.50591e-11
0.004329
-1.38098e-10
0.004329
-5.32909e-11
0.004329
-6.5425e-11
0.004329
2.32342e-10
0.004329
3.41982e-10
0.004329
7.32759e-10
0.00432899
1.14398e-09
0.00432899
2.01343e-09
0.00432899
3.13673e-09
0.00432899
5.02613e-09
0.00432898
7.92761e-09
0.00432898
1.27172e-08
0.00432896
1.95685e-08
0.00432895
2.9527e-08
0.00432892
4.35435e-08
0.00432888
6.12145e-08
0.00432883
8.23668e-08
0.00432877
9.82819e-08
0.0043287
1.06064e-07
0.00432861
1.16508e-07
0.00432828
4.29164e-07
0.00432694
2.04798e-06
0.00432234
7.21629e-06
7.93996e-06
0.00507266
0.00252443
0.00495578
0.000522652
0.00492272
7.48809e-05
0.00492014
9.48125e-06
0.00492166
-6.64663e-06
0.00492023
4.78194e-06
0.00491828
5.17792e-06
0.00491594
6.58015e-06
0.00491394
5.4197e-06
0.00491221
4.72858e-06
0.0049108
3.77881e-06
0.00490966
3.05788e-06
0.00490876
2.38877e-06
0.00490807
1.8474e-06
0.00490754
1.39276e-06
0.00490714
1.0324e-06
0.00490685
7.45598e-07
0.00490665
5.31069e-07
0.0049065
3.72458e-07
0.0049064
2.57959e-07
0.00490633
1.74886e-07
0.00490629
1.16409e-07
0.00490626
7.59668e-08
0.00490624
5.12303e-08
0.00490622
3.36904e-08
0.00490621
2.23044e-08
0.00490621
1.36932e-08
0.00490621
8.21281e-09
0.0049062
5.50682e-09
0.0049062
4.14038e-09
0.0049062
2.76049e-09
0.0049062
2.35203e-09
0.0049062
1.34173e-09
0.0049062
1.41712e-09
0.0049062
9.01902e-10
0.0049062
3.68979e-10
0.0049062
-1.31572e-10
0.0049062
2.56716e-10
0.0049062
2.66137e-10
0.0049062
3.75134e-10
0.0049062
-1.06598e-10
0.0049062
6.14549e-10
0.0049062
1.65096e-10
0.0049062
2.51384e-10
0.0049062
-3.90172e-10
0.0049062
-3.39011e-10
0.0049062
-7.38578e-10
0.0049062
-8.31376e-10
0.0049062
-1.03495e-09
0.0049062
-3.77163e-10
0.0049062
-6.27792e-10
0.0049062
-3.34151e-10
0.0049062
-2.74303e-10
0.0049062
3.24654e-10
0.0049062
-1.41482e-10
0.0049062
1.96505e-10
0.0049062
1.40867e-11
0.0049062
3.9873e-10
0.0049062
-3.39891e-11
0.0049062
3.34558e-10
0.0049062
3.80938e-10
0.0049062
6.33238e-10
0.0049062
3.08453e-10
0.0049062
3.71621e-10
0.0049062
3.44048e-11
0.0049062
1.14331e-10
0.0049062
-2.62138e-10
0.0049062
-1.37106e-10
0.0049062
-3.3694e-10
0.0049062
-9.78412e-11
0.0049062
-2.40849e-10
0.0049062
-3.9699e-13
0.0049062
-2.36131e-10
0.0049062
-1.2521e-11
0.0049062
-2.80723e-10
0.0049062
-1.44501e-12
0.0049062
-1.943e-10
0.0049062
-4.21962e-11
0.0049062
-7.26685e-11
0.00490619
3.90485e-10
0.00490619
6.40293e-10
0.00490619
1.32802e-09
0.00490619
1.98616e-09
0.00490619
3.39046e-09
0.00490619
5.23539e-09
0.00490619
8.42221e-09
0.00490618
1.31444e-08
0.00490617
2.08467e-08
0.00490616
3.20395e-08
0.00490614
4.81799e-08
0.00490612
7.08446e-08
0.00490608
9.98315e-08
0.00490602
1.36142e-07
0.00490595
1.68136e-07
0.00490586
2.03522e-07
0.00490571
2.65655e-07
0.00490522
9.10578e-07
0.00490359
3.67987e-06
0.00489773
1.30788e-05
2.27855e-05
0.00521043
0.00231401
0.00513984
0.000593234
0.00511247
0.000102261
0.00511107
1.08833e-05
0.00511192
-7.50056e-06
0.00511086
5.84399e-06
0.00510917
6.87135e-06
0.0051072
8.54769e-06
0.00510547
7.1509e-06
0.00510397
6.23134e-06
0.00510273
5.01159e-06
0.00510173
4.0632e-06
0.00510093
3.18777e-06
0.0051003
2.47324e-06
0.00509983
1.86947e-06
0.00509947
1.39101e-06
0.00509921
1.00788e-06
0.00509902
7.19568e-07
0.00509888
5.06907e-07
0.00509879
3.51976e-07
0.00509873
2.39031e-07
0.00509868
1.59531e-07
0.00509865
1.04716e-07
0.00509863
7.04008e-08
0.00509862
4.59827e-08
0.00509861
3.00685e-08
0.00509861
1.87898e-08
0.0050986
1.15618e-08
0.0050986
7.7193e-09
0.0050986
5.54677e-09
0.0050986
3.61575e-09
0.0050986
3.09895e-09
0.0050986
2.03656e-09
0.0050986
1.91743e-09
0.0050986
1.11167e-09
0.0050986
3.22398e-10
0.0050986
-2.20433e-10
0.0050986
2.90217e-10
0.0050986
3.01344e-10
0.0050986
4.98003e-10
0.0050986
3.88797e-11
0.0050986
7.11656e-10
0.0050986
2.99595e-10
0.0050986
3.45068e-10
0.0050986
-4.54328e-10
0.0050986
-5.13713e-10
0.0050986
-9.90336e-10
0.0050986
-1.09238e-09
0.0050986
-1.42857e-09
0.0050986
-6.78938e-10
0.0050986
-8.05027e-10
0.0050986
-4.47183e-10
0.0050986
-4.11455e-10
0.0050986
2.76134e-10
0.0050986
-1.77663e-10
0.0050986
1.62224e-10
0.0050986
-1.02647e-10
0.0050986
3.83819e-10
0.0050986
1.56866e-11
0.0050986
4.51568e-10
0.0050986
5.4849e-10
0.0050986
8.44217e-10
0.0050986
4.745e-10
0.0050986
5.43002e-10
0.00509859
8.00683e-11
0.0050986
1.38504e-10
0.00509859
-3.32894e-10
0.0050986
-1.84463e-10
0.0050986
-4.16751e-10
0.0050986
-1.20355e-10
0.0050986
-3.2409e-10
0.0050986
-3.82421e-12
0.0050986
-2.75665e-10
0.0050986
-1.76004e-11
0.00509859
-3.08243e-10
0.00509859
-3.59766e-11
0.00509859
-2.46596e-10
0.00509859
-3.17213e-11
0.00509859
-4.70096e-11
0.00509859
5.32197e-10
0.00509859
9.34281e-10
0.00509859
1.88527e-09
0.00509859
2.83196e-09
0.00509859
4.71219e-09
0.00509859
7.25124e-09
0.00509859
1.1634e-08
0.00509858
1.80822e-08
0.00509857
2.8436e-08
0.00509856
4.35881e-08
0.00509855
6.5342e-08
0.00509852
9.59788e-08
0.00509849
1.35709e-07
0.00509843
1.87759e-07
0.00509836
2.3968e-07
0.00509825
3.16601e-07
0.00509806
4.54234e-07
0.00509749
1.48502e-06
0.00509582
5.34355e-06
0.00508954
1.93604e-05
3.78761e-05
0.00523368
0.00208033
0.00519439
0.000632525
0.00517351
0.000123143
0.00517299
1.14014e-05
0.00517345
-7.95829e-06
0.00517275
6.53782e-06
0.00517139
8.23006e-06
0.00516985
1.00966e-05
0.00516845
8.54571e-06
0.00516723
7.4482e-06
0.00516622
6.02258e-06
0.00516539
4.89437e-06
0.00516472
3.85482e-06
0.0051642
2.99509e-06
0.0051638
2.27312e-06
0.00516349
1.6971e-06
0.00516327
1.23382e-06
0.0051631
8.83206e-07
0.00516299
6.24185e-07
0.0051629
4.34536e-07
0.00516285
2.95908e-07
0.00516281
1.97958e-07
0.00516278
1.30349e-07
0.00516276
8.74083e-08
0.00516275
5.71025e-08
0.00516275
3.73287e-08
0.00516274
2.36561e-08
0.00516274
1.47566e-08
0.00516274
9.73682e-09
0.00516273
6.80911e-09
0.00516273
4.50729e-09
0.00516273
3.92359e-09
0.00516273
2.73426e-09
0.00516273
2.3482e-09
0.00516273
1.34089e-09
0.00516273
3.2866e-10
0.00516273
-2.67858e-10
0.00516273
3.46417e-10
0.00516273
4.01236e-10
0.00516273
6.42696e-10
0.00516273
1.8602e-10
0.00516273
8.07654e-10
0.00516273
4.74317e-10
0.00516273
4.98813e-10
0.00516273
-4.89738e-10
0.00516273
-6.66589e-10
0.00516273
-1.19883e-09
0.00516273
-1.32833e-09
0.00516273
-1.77084e-09
0.00516273
-1.00125e-09
0.00516273
-1.00278e-09
0.00516273
-5.49385e-10
0.00516273
-5.22648e-10
0.00516273
1.9642e-10
0.00516273
-2.16173e-10
0.00516273
1.32801e-10
0.00516273
-1.99412e-10
0.00516273
3.73725e-10
0.00516273
8.4861e-11
0.00516273
5.63581e-10
0.00516273
7.33812e-10
0.00516273
1.06925e-09
0.00516273
6.63938e-10
0.00516273
7.10904e-10
0.00516273
1.48826e-10
0.00516273
1.78637e-10
0.00516273
-3.57656e-10
0.00516273
-2.36681e-10
0.00516273
-4.93175e-10
0.00516273
-1.51999e-10
0.00516273
-3.88891e-10
0.00516273
-4.38392e-11
0.00516273
-3.28783e-10
0.00516273
-4.36014e-11
0.00516273
-3.25625e-10
0.00516273
-8.22997e-11
0.00516273
-3.0817e-10
0.00516273
-3.6604e-11
0.00516273
-1.94477e-11
0.00516273
6.49685e-10
0.00516273
1.19647e-09
0.00516273
2.36866e-09
0.00516273
3.5875e-09
0.00516273
5.88853e-09
0.00516272
9.0568e-09
0.00516272
1.44905e-08
0.00516272
2.24732e-08
0.00516271
3.50887e-08
0.0051627
5.36489e-08
0.00516269
8.02273e-08
0.00516266
1.17816e-07
0.00516263
1.67276e-07
0.00516258
2.34826e-07
0.00516252
3.09204e-07
0.0051624
4.36852e-07
0.00516218
6.64771e-07
0.00516159
2.07492e-06
0.00516002
6.91916e-06
0.00515412
2.52589e-05
5.10195e-05
0.00522288
0.00185745
0.00520672
0.00064868
0.00519184
0.000138023
0.00519193
1.13089e-05
0.00519217
-8.19162e-06
0.0051918
6.90483e-06
0.00519079
9.24006e-06
0.00518965
1.12289e-05
0.0051886
9.59708e-06
0.00518768
8.37138e-06
0.0051869
6.80209e-06
0.00518625
5.54113e-06
0.00518573
4.37954e-06
0.00518531
3.41024e-06
0.00518499
2.5965e-06
0.00518474
1.94515e-06
0.00518456
1.41866e-06
0.00518442
1.01823e-06
0.00518432
7.21869e-07
0.00518425
5.03469e-07
0.00518421
3.43296e-07
0.00518417
2.3045e-07
0.00518415
1.52099e-07
0.00518414
1.01888e-07
0.00518413
6.67682e-08
0.00518412
4.38143e-08
0.00518412
2.80267e-08
0.00518411
1.75363e-08
0.00518411
1.14902e-08
0.00518411
7.99442e-09
0.00518411
5.38095e-09
0.00518411
4.70341e-09
0.00518411
3.35066e-09
0.00518411
2.66561e-09
0.00518411
1.50225e-09
0.00518411
3.82761e-10
0.00518411
-2.89908e-10
0.00518411
3.56409e-10
0.00518411
4.86058e-10
0.00518411
7.98859e-10
0.00518411
3.2701e-10
0.00518411
8.77837e-10
0.00518411
5.83642e-10
0.00518411
6.69422e-10
0.00518411
-4.76845e-10
0.00518411
-7.98378e-10
0.00518411
-1.4029e-09
0.00518411
-1.52478e-09
0.00518411
-2.02945e-09
0.00518411
-1.28315e-09
0.00518411
-1.19647e-09
0.00518411
-6.50897e-10
0.00518411
-6.13138e-10
0.00518411
1.18196e-10
0.00518411
-2.72839e-10
0.00518411
8.51815e-11
0.00518411
-3.01124e-10
0.00518411
3.43634e-10
0.00518411
1.61677e-10
0.00518411
6.76981e-10
0.00518411
9.01045e-10
0.00518411
1.28033e-09
0.00518411
8.53166e-10
0.00518411
8.72e-10
0.00518411
2.14758e-10
0.00518411
2.11695e-10
0.00518411
-3.64526e-10
0.00518411
-2.7934e-10
0.00518411
-5.65883e-10
0.00518411
-1.84901e-10
0.00518411
-4.30186e-10
0.00518411
-8.5353e-11
0.00518411
-3.80172e-10
0.00518411
-7.81944e-11
0.00518411
-3.44866e-10
0.00518411
-1.25639e-10
0.00518411
-3.76171e-10
0.00518411
-5.72293e-11
0.00518411
9.70615e-12
0.00518411
7.50652e-10
0.00518411
1.42233e-09
0.00518411
2.77997e-09
0.0051841
4.23288e-09
0.0051841
6.89228e-09
0.0051841
1.05987e-08
0.0051841
1.69032e-08
0.0051841
2.61939e-08
0.00518409
4.06159e-08
0.00518408
6.19471e-08
0.00518407
9.24857e-08
0.00518405
1.35873e-07
0.00518403
1.938e-07
0.00518398
2.76008e-07
0.00518392
3.73107e-07
0.0051838
5.56117e-07
0.00518359
8.78308e-07
0.00518301
2.64996e-06
0.00518163
8.30506e-06
0.00517657
3.03151e-05
6.16622e-05
0.00520414
0.00165331
0.00520562
0.000647201
0.00519612
0.000147516
0.00519662
1.08089e-05
0.00519672
-8.29174e-06
0.00519663
6.99267e-06
0.00519596
9.91306e-06
0.00519522
1.19704e-05
0.0051945
1.03173e-05
0.00519386
9.01023e-06
0.00519331
7.35377e-06
0.00519284
6.00459e-06
0.00519246
4.76131e-06
0.00519216
3.71678e-06
0.00519192
2.83773e-06
0.00519173
2.13261e-06
0.00519159
1.55986e-06
0.00519148
1.12232e-06
0.00519141
7.9797e-07
0.00519135
5.57703e-07
0.00519131
3.80835e-07
0.00519129
2.56224e-07
0.00519127
1.69533e-07
0.00519126
1.13634e-07
0.00519125
7.47251e-08
0.00519125
4.92401e-08
0.00519124
3.1593e-08
0.00519124
1.98238e-08
0.00519124
1.29613e-08
0.00519124
9.08487e-09
0.00519124
6.18344e-09
0.00519124
5.35908e-09
0.00519124
3.85456e-09
0.00519124
2.88419e-09
0.00519124
1.56732e-09
0.00519124
4.292e-10
0.00519124
-2.88966e-10
0.00519124
3.28285e-10
0.00519124
5.19006e-10
0.00519124
9.25525e-10
0.00519124
4.52284e-10
0.00519124
9.29277e-10
0.00519124
6.10536e-10
0.00519123
8.09304e-10
0.00519123
-4.21543e-10
0.00519123
-8.99904e-10
0.00519123
-1.59553e-09
0.00519123
-1.67564e-09
0.00519123
-2.19221e-09
0.00519123
-1.49689e-09
0.00519123
-1.36983e-09
0.00519123
-7.47508e-10
0.00519123
-6.87396e-10
0.00519123
4.53607e-11
0.00519123
-3.49488e-10
0.00519123
2.09833e-11
0.00519123
-4.07256e-10
0.00519123
2.84083e-10
0.00519123
2.28274e-10
0.00519123
7.89476e-10
0.00519123
1.04099e-09
0.00519123
1.45589e-09
0.00519123
1.02274e-09
0.00519123
1.0188e-09
0.00519123
2.69179e-10
0.00519123
2.26556e-10
0.00519123
-3.65637e-10
0.00519123
-3.05915e-10
0.00519123
-6.27257e-10
0.00519123
-2.14702e-10
0.00519123
-4.47901e-10
0.00519123
-1.11241e-10
0.00519123
-4.19353e-10
0.00519123
-1.13445e-10
0.00519123
-3.65093e-10
0.00519123
-1.59664e-10
0.00519123
-4.4138e-10
0.00519123
-8.67877e-11
0.00519123
4.37265e-11
0.00519123
8.41497e-10
0.00519123
1.61262e-09
0.00519123
3.12266e-09
0.00519123
4.76293e-09
0.00519123
7.70657e-09
0.00519123
1.18417e-08
0.00519123
1.88254e-08
0.00519122
2.9068e-08
0.00519122
4.49521e-08
0.00519121
6.83678e-08
0.0051912
1.01969e-07
0.00519119
1.49932e-07
0.00519117
2.1487e-07
0.00519114
3.10228e-07
0.00519108
4.29484e-07
0.00519097
6.67494e-07
0.00519077
1.08098e-06
0.00519024
3.17104e-06
0.00518911
9.44297e-06
0.0051851
3.43191e-05
6.97064e-05
0.00518548
0.00146783
0.00520065
0.000632035
0.00519592
0.000152242
0.00519667
1.00544e-05
0.00519668
-8.29608e-06
0.00519682
6.85165e-06
0.00519646
1.02718e-05
0.00519608
1.23528e-05
0.00519567
1.07263e-05
0.0051953
9.38001e-06
0.00519497
7.68664e-06
0.00519468
6.29057e-06
0.00519444
5.00301e-06
0.00519424
3.91515e-06
0.00519408
2.9968e-06
0.00519396
2.25862e-06
0.00519386
1.6564e-06
0.00519379
1.19439e-06
0.00519374
8.51438e-07
0.0051937
5.96422e-07
0.00519367
4.0791e-07
0.00519365
2.74899e-07
0.00519364
1.82365e-07
0.00519363
1.22445e-07
0.00519362
8.07739e-08
0.00519362
5.32878e-08
0.00519362
3.42535e-08
0.00519362
2.16157e-08
0.00519361
1.41506e-08
0.00519361
1.00426e-08
0.00519361
6.88785e-09
0.00519361
5.86237e-09
0.00519361
4.22769e-09
0.00519361
3.01974e-09
0.00519361
1.56418e-09
0.00519361
4.32624e-10
0.00519361
-2.80466e-10
0.00519361
2.75646e-10
0.00519361
5.04577e-10
0.00519361
1.00145e-09
0.00519361
5.55014e-10
0.00519361
9.75322e-10
0.00519361
5.85453e-10
0.00519361
8.84641e-10
0.00519361
-3.40098e-10
0.00519361
-9.57363e-10
0.00519361
-1.74992e-09
0.00519361
-1.78752e-09
0.00519361
-2.27606e-09
0.00519361
-1.63979e-09
0.00519361
-1.51132e-09
0.00519361
-8.41866e-10
0.00519361
-7.56575e-10
0.00519361
-2.64105e-11
0.00519361
-4.38279e-10
0.00519361
-5.88462e-11
0.00519361
-5.12897e-10
0.00519361
1.92506e-10
0.00519361
2.71248e-10
0.00519361
8.9522e-10
0.00519361
1.15885e-09
0.00519361
1.58675e-09
0.00519361
1.16302e-09
0.00519361
1.14907e-09
0.00519361
3.22049e-10
0.00519361
2.24345e-10
0.00519361
-3.64202e-10
0.00519361
-3.12913e-10
0.00519361
-6.65835e-10
0.00519361
-2.40147e-10
0.00519361
-4.50659e-10
0.00519361
-1.24141e-10
0.00519361
-4.41557e-10
0.00519361
-1.46323e-10
0.00519361
-3.88895e-10
0.00519361
-1.88217e-10
0.00519361
-4.93571e-10
0.00519361
-1.21563e-10
0.00519361
7.98162e-11
0.00519361
9.20834e-10
0.00519361
1.76494e-09
0.00519361
3.39251e-09
0.00519361
5.17461e-09
0.00519361
8.31369e-09
0.00519361
1.2752e-08
0.0051936
2.02258e-08
0.0051936
3.11003e-08
0.0051936
4.79435e-08
0.0051936
7.28727e-08
0.00519359
1.0861e-07
0.00519358
1.59875e-07
0.00519356
2.30196e-07
0.00519354
3.36657e-07
0.00519349
4.76029e-07
0.00519339
7.64593e-07
0.00519322
1.25958e-06
0.00519278
3.60687e-06
0.00519192
1.03003e-05
0.00518906
3.7184e-05
7.51792e-05
0.00516897
0.00129886
0.00519496
0.000606051
0.00519442
0.000152777
0.00519531
9.15973e-06
0.00519523
-8.2117e-06
0.00519555
6.53146e-06
0.00519548
1.03434e-05
0.00519542
1.24089e-05
0.0051953
1.08467e-05
0.00519518
9.49834e-06
0.00519506
7.8122e-06
0.00519494
6.40705e-06
0.00519484
5.10948e-06
0.00519475
4.00789e-06
0.00519467
3.07505e-06
0.0051946
2.32355e-06
0.00519455
1.7081e-06
0.00519451
1.23406e-06
0.00519448
8.81855e-07
0.00519446
6.19125e-07
0.00519444
4.24053e-07
0.00519443
2.86214e-07
0.00519442
1.90375e-07
0.00519442
1.28099e-07
0.00519441
8.4727e-08
0.00519441
5.59282e-08
0.00519441
3.60411e-08
0.00519441
2.28352e-08
0.00519441
1.50657e-08
0.00519441
1.08247e-08
0.00519441
7.46826e-09
0.00519441
6.21863e-09
0.00519441
4.47748e-09
0.00519441
3.08306e-09
0.00519441
1.53355e-09
0.00519441
3.93346e-10
0.00519441
-2.81339e-10
0.00519441
2.07808e-10
0.00519441
4.64759e-10
0.0051944
1.0379e-09
0.0051944
6.38012e-10
0.0051944
1.01961e-09
0.0051944
5.4447e-10
0.0051944
8.94825e-10
0.0051944
-2.47724e-10
0.0051944
-9.66331e-10
0.0051944
-1.84971e-09
0.0051944
-1.8689e-09
0.0051944
-2.30915e-09
0.0051944
-1.7298e-09
0.0051944
-1.62234e-09
0.0051944
-9.38785e-10
0.0051944
-8.28837e-10
0.0051944
-1.06463e-10
0.0051944
-5.35534e-10
0.0051944
-1.56447e-10
0.0051944
-6.14649e-10
0.0051944
7.46875e-11
0.0051944
2.85218e-10
0.0051944
9.8948e-10
0.0051944
1.26405e-09
0.0051944
1.67831e-09
0.0051944
1.27138e-09
0.0051944
1.2643e-09
0.0051944
3.88574e-10
0.0051944
2.17946e-10
0.0051944
-3.58331e-10
0.0051944
-3.00349e-10
0.0051944
-6.75501e-10
0.0051944
-2.62548e-10
0.0051944
-4.48581e-10
0.0051944
-1.34282e-10
0.0051944
-4.50134e-10
0.0051944
-1.75978e-10
0.0051944
-4.18125e-10
0.0051944
-2.20311e-10
0.0051944
-5.28856e-10
0.0051944
-1.58299e-10
0.0051944
1.11899e-10
0.0051944
9.82718e-10
0.0051944
1.86867e-09
0.0051944
3.57487e-09
0.0051944
5.45749e-09
0.0051944
8.69634e-09
0.0051944
1.33172e-08
0.0051944
2.10232e-08
0.0051944
3.23079e-08
0.0051944
4.96773e-08
0.00519439
7.54179e-08
0.00519439
1.12365e-07
0.00519438
1.65628e-07
0.00519438
2.39564e-07
0.00519436
3.54542e-07
0.00519432
5.10627e-07
0.00519425
8.41832e-07
0.0051941
1.40318e-06
0.00519377
3.93546e-06
0.00519322
1.08582e-05
0.00519151
3.88869e-05
7.81761e-05
0.00515488
0.00114398
0.00518952
0.000571406
0.00519267
0.000149634
0.00519362
8.2048e-06
0.00519344
-8.03109e-06
0.0051939
6.07815e-06
0.00519408
1.01567e-05
0.00519432
1.21709e-05
0.00519447
1.07019e-05
0.00519458
9.38407e-06
0.00519465
7.74367e-06
0.00519469
6.36368e-06
0.00519471
5.08726e-06
0.00519472
3.99913e-06
0.00519472
3.07508e-06
0.00519472
2.3289e-06
0.00519471
1.7157e-06
0.0051947
1.24166e-06
0.0051947
8.89257e-07
0.00519469
6.25698e-07
0.00519468
4.29105e-07
0.00519468
2.90024e-07
0.00519468
1.93419e-07
0.00519468
1.30447e-07
0.00519467
8.64888e-08
0.00519467
5.71226e-08
0.00519467
3.6946e-08
0.00519467
2.3574e-08
0.00519467
1.56826e-08
0.00519467
1.1385e-08
0.00519467
7.88452e-09
0.00519467
6.4313e-09
0.00519467
4.61956e-09
0.00519467
3.077e-09
0.00519467
1.4917e-09
0.00519467
3.27527e-10
0.00519467
-2.90464e-10
0.00519467
1.31803e-10
0.00519467
4.09811e-10
0.00519467
1.04927e-09
0.00519467
7.05371e-10
0.00519467
1.06179e-09
0.00519467
5.05856e-10
0.00519467
8.52768e-10
0.00519467
-1.57495e-10
0.00519467
-9.36946e-10
0.00519467
-1.88941e-09
0.00519467
-1.9228e-09
0.00519467
-2.31537e-09
0.00519467
-1.78706e-09
0.00519467
-1.7137e-09
0.00519467
-1.04374e-09
0.00519467
-9.08088e-10
0.00519467
-1.99055e-10
0.00519467
-6.41066e-10
0.00519467
-2.71347e-10
0.00519467
-7.08638e-10
0.00519467
-5.66913e-11
0.00519467
2.70827e-10
0.00519467
1.06656e-09
0.00519467
1.36544e-09
0.00519467
1.74472e-09
0.00519467
1.35138e-09
0.00519467
1.36145e-09
0.00519467
4.7114e-10
0.00519467
2.20539e-10
0.00519467
-3.47791e-10
0.00519467
-2.73243e-10
0.00519467
-6.55761e-10
0.00519467
-2.81971e-10
0.00519467
-4.4938e-10
0.00519467
-1.50818e-10
0.00519467
-4.52747e-10
0.00519467
-2.02174e-10
0.00519467
-4.50438e-10
0.00519467
-2.62192e-10
0.00519467
-5.49915e-10
0.00519467
-1.93147e-10
0.00519467
1.3166e-10
0.00519467
1.01855e-09
0.00519467
1.91515e-09
0.00519467
3.65698e-09
0.00519467
5.57623e-09
0.00519467
8.85671e-09
0.00519467
1.35286e-08
0.00519467
2.12846e-08
0.00519467
3.26834e-08
0.00519467
5.01487e-08
0.00519466
7.60219e-08
0.00519466
1.13243e-07
0.00519466
1.67184e-07
0.00519466
2.42859e-07
0.00519465
3.63304e-07
0.00519463
5.31613e-07
0.00519458
8.94782e-07
0.00519448
1.50354e-06
0.00519427
4.1422e-06
0.00519402
1.11083e-05
0.00519346
3.94464e-05
7.88376e-05
0.005143
0.00100098
0.00518463
0.000529775
0.005191
0.000143264
0.00519196
7.2411e-06
0.00519167
-7.74184e-06
0.00519222
5.53222e-06
0.00519263
9.74088e-06
0.00519313
1.16698e-05
0.00519352
1.03158e-05
0.00519385
9.05701e-06
0.0051941
7.49569e-06
0.00519429
6.17142e-06
0.00519443
4.94434e-06
0.00519454
3.89433e-06
0.00519461
3.00057e-06
0.00519466
2.27714e-06
0.0051947
1.68065e-06
0.00519472
1.21808e-06
0.00519474
8.7415e-07
0.00519475
6.16403e-07
0.00519475
4.23206e-07
0.00519476
2.86342e-07
0.00519476
1.91453e-07
0.00519476
1.29451e-07
0.00519476
8.60346e-08
0.00519476
5.68828e-08
0.00519476
3.69799e-08
0.00519476
2.38214e-08
0.00519476
1.59592e-08
0.00519476
1.16805e-08
0.00519476
8.11635e-09
0.00519476
6.51679e-09
0.00519476
4.66666e-09
0.00519476
3.00046e-09
0.00519476
1.41654e-09
0.00519476
2.5682e-10
0.00519476
-3.00162e-10
0.00519476
6.65351e-11
0.00519476
3.38428e-10
0.00519476
1.03706e-09
0.00519476
7.60589e-10
0.00519476
1.1008e-09
0.00519476
4.73365e-10
0.00519476
7.80131e-10
0.00519476
-9.32134e-11
0.00519476
-8.76024e-10
0.00519476
-1.87522e-09
0.00519476
-1.94406e-09
0.00519476
-2.30343e-09
0.00519476
-1.81851e-09
0.00519476
-1.79824e-09
0.00519476
-1.15409e-09
0.00519476
-1.00019e-09
0.00519476
-3.03846e-10
0.00519476
-7.58747e-10
0.00519476
-3.96019e-10
0.00519476
-7.92474e-10
0.00519476
-1.80537e-10
0.00519476
2.30648e-10
0.00519476
1.12423e-09
0.00519476
1.4675e-09
0.00519476
1.80384e-09
0.00519476
1.41147e-09
0.00519476
1.43743e-09
0.00519476
5.64389e-10
0.00519476
2.39592e-10
0.00519476
-3.36339e-10
0.00519476
-2.33108e-10
0.00519476
-6.12343e-10
0.00519476
-2.90125e-10
0.00519476
-4.57194e-10
0.00519476
-1.72702e-10
0.00519476
-4.57841e-10
0.00519476
-2.25097e-10
0.00519476
-4.81657e-10
0.00519476
-3.13775e-10
0.00519476
-5.61623e-10
0.00519476
-2.20992e-10
0.00519476
1.29898e-10
0.00519476
1.02309e-09
0.00519476
1.90247e-09
0.00519476
3.63219e-09
0.00519476
5.54728e-09
0.00519476
8.78036e-09
0.00519476
1.33872e-08
0.00519476
2.10131e-08
0.00519476
3.22384e-08
0.00519476
4.93802e-08
0.00519476
7.47414e-08
0.00519476
1.11317e-07
0.00519476
1.64613e-07
0.00519477
2.40079e-07
0.00519477
3.62596e-07
0.00519476
5.37825e-07
0.00519474
9.20298e-07
0.00519468
1.5551e-06
0.00519461
4.21873e-06
0.00519467
1.10504e-05
0.0051952
3.89099e-05
7.73324e-05
0.00513304
0.000867938
0.00518032
0.000482492
0.00518951
0.000134077
0.00519045
6.29894e-06
0.00519004
-7.33214e-06
0.00519064
4.92782e-06
0.00519126
9.12469e-06
0.00519199
1.09361e-05
0.0051926
9.71286e-06
0.00519311
8.53768e-06
0.00519353
7.08409e-06
0.00519385
5.84246e-06
0.00519411
4.68985e-06
0.0051943
3.7001e-06
0.00519445
2.85616e-06
0.00519455
2.17157e-06
0.00519463
1.60516e-06
0.00519468
1.16477e-06
0.00519472
8.375e-07
0.00519474
5.91824e-07
0.00519476
4.06727e-07
0.00519477
2.75366e-07
0.00519478
1.84544e-07
0.00519478
1.25176e-07
0.00519479
8.34303e-08
0.00519479
5.52585e-08
0.00519479
3.6146e-08
0.00519479
2.3542e-08
0.00519479
1.58479e-08
0.00519479
1.16731e-08
0.00519479
8.14125e-09
0.00519479
6.47429e-09
0.00519479
4.62237e-09
0.00519479
2.85781e-09
0.00519479
1.30071e-09
0.00519479
1.74048e-10
0.00519479
-3.08525e-10
0.00519479
2.01639e-11
0.00519479
2.59323e-10
0.00519479
1.00416e-09
0.00519479
7.93472e-10
0.00519479
1.13279e-09
0.00519479
4.47277e-10
0.00519479
6.84449e-10
0.00519479
-4.90262e-11
0.00519479
-7.93613e-10
0.00519479
-1.814e-09
0.00519479
-1.93397e-09
0.00519479
-2.28215e-09
0.00519479
-1.83486e-09
0.00519479
-1.86942e-09
0.00519479
-1.27e-09
0.00519479
-1.10246e-09
0.00519479
-4.16099e-10
0.00519479
-8.82641e-10
0.00519479
-5.34984e-10
0.00519479
-8.66179e-10
0.00519479
-2.84043e-10
0.00519479
1.83584e-10
0.00519479
1.161e-09
0.00519479
1.56264e-09
0.00519479
1.85987e-09
0.00519479
1.45066e-09
0.00519479
1.48926e-09
0.00519479
6.58563e-10
0.00519479
2.74661e-10
0.00519479
-3.1912e-10
0.00519479
-1.88309e-10
0.00519479
-5.4952e-10
0.00519479
-2.88982e-10
0.00519479
-4.67002e-10
0.00519479
-1.9869e-10
0.00519479
-4.67189e-10
0.00519479
-2.46318e-10
0.00519479
-5.0881e-10
0.00519479
-3.71562e-10
0.00519479
-5.68689e-10
0.00519479
-2.38372e-10
0.00519479
1.15781e-10
0.00519479
9.97604e-10
0.00519479
1.83162e-09
0.00519479
3.50791e-09
0.00519479
5.37501e-09
0.00519479
8.47779e-09
0.00519479
1.29032e-08
0.00519479
2.02225e-08
0.00519479
3.10021e-08
0.00519479
4.74229e-08
0.00519479
7.16658e-08
0.0051948
1.0671e-07
0.00519481
1.58052e-07
0.00519482
2.3134e-07
0.00519483
3.52326e-07
0.00519483
5.28633e-07
0.00519484
9.16533e-07
0.00519484
1.55476e-06
0.0051949
4.16235e-06
0.00519525
1.06926e-05
0.00519682
3.73461e-05
7.3847e-05
0.00512474
0.000743199
0.00517659
0.00043064
0.00518822
0.000122447
0.00518912
5.39379e-06
0.00518858
-6.79399e-06
0.00518922
4.29248e-06
0.00519001
8.33608e-06
0.00519094
9.99919e-06
0.00519174
8.91762e-06
0.00519243
7.84708e-06
0.00519298
6.52561e-06
0.00519344
5.38994e-06
0.00519379
4.33392e-06
0.00519407
3.4241e-06
0.00519428
2.6474e-06
0.00519443
2.01626e-06
0.00519455
1.49205e-06
0.00519463
1.08367e-06
0.00519468
7.80683e-07
0.00519472
5.52838e-07
0.00519475
3.80245e-07
0.00519477
2.5748e-07
0.00519478
1.72903e-07
0.00519479
1.1776e-07
0.00519479
7.87929e-08
0.0051948
5.23258e-08
0.0051948
3.44472e-08
0.0051948
2.2705e-08
0.0051948
1.5326e-08
0.0051948
1.13397e-08
0.0051948
7.94653e-09
0.0051948
6.29668e-09
0.0051948
4.48303e-09
0.0051948
2.6573e-09
0.0051948
1.13966e-09
0.0051948
7.54925e-11
0.0051948
-3.16682e-10
0.0051948
-2.52023e-13
0.0051948
1.85462e-10
0.0051948
9.51619e-10
0.0051948
7.96692e-10
0.0051948
1.15317e-09
0.0051948
4.26512e-10
0.0051948
5.79521e-10
0.0051948
-2.51163e-11
0.0051948
-6.93111e-10
0.0051948
-1.70509e-09
0.0051948
-1.89141e-09
0.0051948
-2.25346e-09
0.0051948
-1.84399e-09
0.0051948
-1.92832e-09
0.0051948
-1.38846e-09
0.0051948
-1.2147e-09
0.0051948
-5.31296e-10
0.0051948
-1.00559e-09
0.0051948
-6.84162e-10
0.0051948
-9.3388e-10
0.0051948
-3.58848e-10
0.0051948
1.43622e-10
0.0051948
1.17918e-09
0.0051948
1.64304e-09
0.0051948
1.91261e-09
0.0051948
1.47137e-09
0.0051948
1.5119e-09
0.0051948
7.43587e-10
0.0051948
3.24997e-10
0.0051948
-2.92754e-10
0.0051948
-1.40927e-10
0.0051948
-4.72511e-10
0.0051948
-2.77868e-10
0.0051948
-4.77016e-10
0.0051948
-2.27004e-10
0.0051948
-4.8138e-10
0.0051948
-2.67073e-10
0.0051948
-5.28464e-10
0.0051948
-4.28017e-10
0.0051948
-5.71826e-10
0.0051948
-2.40088e-10
0.0051948
9.6712e-11
0.0051948
9.48185e-10
0.0051948
1.7105e-09
0.0051948
3.28961e-09
0.0051948
5.07016e-09
0.0051948
7.97112e-09
0.0051948
1.21001e-08
0.0051948
1.89437e-08
0.0051948
2.90188e-08
0.00519481
4.43465e-08
0.00519481
6.69107e-08
0.00519482
9.95841e-08