/*--------------------------------*- C++ -*----------------------------------*\
  =========                 |
  \\      /  F ield         | OpenFOAM: The Open Source CFD Toolbox
   \\    /   O peration     | Website:  https://openfoam.org
    \\  /    A nd           | Version:  7
     \\/     M anipulation  |
\*---------------------------------------------------------------------------*/
FoamFile
{
    version     2.0;
    format      ascii;
    class       volVectorField;
    location    "0.5";
    object      U;
}
// * * * * * * * * * * * * * * * * * * * * * * * * * * * * * * * * * * * * * //

dimensions      [0 1 -1 0 0 0 0];

internalField   nonuniform List<vector> 
4000
(
(0.537585 0.056387 0)
(0.552249 0.00359756 0)
(0.517055 -0.00175851 0)
(0.52284 -0.00199571 0)
(0.520969 -0.00212541 0)
(0.521857 -0.00203304 0)
(0.521206 -0.00204084 0)
(0.521015 -0.00203156 0)
(0.520636 -0.00204156 0)
(0.520397 -0.00204612 0)
(0.520169 -0.00205276 0)
(0.520001 -0.00205738 0)
(0.519862 -0.00206156 0)
(0.519758 -0.00206477 0)
(0.519678 -0.00206751 0)
(0.519619 -0.0020696 0)
(0.519576 -0.00207112 0)
(0.519546 -0.00207227 0)
(0.519524 -0.00207319 0)
(0.519509 -0.0020738 0)
(0.519499 -0.00207421 0)
(0.519493 -0.00207449 0)
(0.519488 -0.00207472 0)
(0.519485 -0.00207484 0)
(0.519484 -0.00207493 0)
(0.519482 -0.00207497 0)
(0.519482 -0.00207501 0)
(0.519481 -0.00207504 0)
(0.519481 -0.00207506 0)
(0.51948 -0.00207507 0)
(0.51948 -0.00207507 0)
(0.51948 -0.00207507 0)
(0.51948 -0.00207508 0)
(0.51948 -0.00207508 0)
(0.51948 -0.00207508 0)
(0.51948 -0.00207508 0)
(0.51948 -0.00207508 0)
(0.51948 -0.00207508 0)
(0.51948 -0.00207508 0)
(0.51948 -0.00207509 0)
(0.51948 -0.00207509 0)
(0.51948 -0.00207507 0)
(0.51948 -0.00207508 0)
(0.51948 -0.00207509 0)
(0.51948 -0.00207509 0)
(0.51948 -0.00207508 0)
(0.51948 -0.00207509 0)
(0.51948 -0.00207509 0)
(0.51948 -0.00207509 0)
(0.51948 -0.00207508 0)
(0.51948 -0.00207509 0)
(0.51948 -0.00207508 0)
(0.51948 -0.00207509 0)
(0.51948 -0.00207508 0)
(0.51948 -0.00207509 0)
(0.51948 -0.00207508 0)
(0.51948 -0.00207508 0)
(0.51948 -0.00207508 0)
(0.51948 -0.00207509 0)
(0.51948 -0.00207508 0)
(0.51948 -0.00207508 0)
(0.51948 -0.00207508 0)
(0.51948 -0.00207508 0)
(0.51948 -0.00207508 0)
(0.51948 -0.00207508 0)
(0.51948 -0.00207508 0)
(0.51948 -0.00207509 0)
(0.51948 -0.00207509 0)
(0.51948 -0.00207509 0)
(0.51948 -0.00207508 0)
(0.51948 -0.00207508 0)
(0.51948 -0.00207509 0)
(0.51948 -0.00207509 0)
(0.51948 -0.00207508 0)
(0.51948 -0.00207509 0)
(0.51948 -0.00207508 0)
(0.51948 -0.00207509 0)
(0.51948 -0.00207509 0)
(0.51948 -0.00207509 0)
(0.51948 -0.00207508 0)
(0.51948 -0.00207508 0)
(0.519479 -0.00207508 0)
(0.519479 -0.00207507 0)
(0.519479 -0.00207507 0)
(0.519479 -0.00207506 0)
(0.519479 -0.00207504 0)
(0.519478 -0.00207501 0)
(0.519478 -0.00207497 0)
(0.519476 -0.0020749 0)
(0.519474 -0.00207481 0)
(0.519471 -0.00207468 0)
(0.519467 -0.00207453 0)
(0.519462 -0.00207438 0)
(0.519454 -0.00207434 0)
(0.519447 -0.00207459 0)
(0.519439 -0.00207519 0)
(0.519445 -0.00207423 0)
(0.519362 -0.00206095 0)
(0.519228 -0.00202082 0)
(0.518635 -0.00215126 0)
(0.86501 0.128422 0)
(0.91168 0.0160148 0)
(0.861947 0.00100888 0)
(0.871286 -4.89806e-05 0)
(0.867817 -0.000485917 0)
(0.869344 -0.000172072 0)
(0.868322 -0.000184873 0)
(0.868096 -0.00014866 0)
(0.86753 -0.000180558 0)
(0.867187 -0.000196201 0)
(0.866847 -0.000219127 0)
(0.866597 -0.000235873 0)
(0.866389 -0.00025186 0)
(0.86623 -0.00026445 0)
(0.866108 -0.00027446 0)
(0.866018 -0.000282249 0)
(0.865951 -0.000288262 0)
(0.865904 -0.0002928 0)
(0.86587 -0.00029626 0)
(0.865847 -0.000298621 0)
(0.865831 -0.000300259 0)
(0.86582 -0.000301438 0)
(0.865813 -0.000302322 0)
(0.865809 -0.000302825 0)
(0.865806 -0.000303168 0)
(0.865804 -0.000303373 0)
(0.865802 -0.000303548 0)
(0.865801 -0.000303666 0)
(0.865801 -0.000303741 0)
(0.8658 -0.000303762 0)
(0.8658 -0.000303776 0)
(0.8658 -0.000303783 0)
(0.8658 -0.000303824 0)
(0.8658 -0.000303811 0)
(0.8658 -0.00030382 0)
(0.8658 -0.000303831 0)
(0.8658 -0.000303836 0)
(0.8658 -0.000303822 0)
(0.8658 -0.000303829 0)
(0.8658 -0.000303839 0)
(0.8658 -0.000303855 0)
(0.8658 -0.000303812 0)
(0.8658 -0.000303835 0)
(0.8658 -0.000303841 0)
(0.8658 -0.000303857 0)
(0.8658 -0.000303837 0)
(0.8658 -0.00030385 0)
(0.8658 -0.000303858 0)
(0.8658 -0.000303863 0)
(0.8658 -0.000303846 0)
(0.8658 -0.000303853 0)
(0.8658 -0.000303842 0)
(0.8658 -0.000303848 0)
(0.8658 -0.000303835 0)
(0.8658 -0.000303845 0)
(0.865799 -0.000303827 0)
(0.865799 -0.000303831 0)
(0.865799 -0.000303827 0)
(0.865799 -0.000303848 0)
(0.865799 -0.000303832 0)
(0.865799 -0.000303828 0)
(0.865799 -0.000303826 0)
(0.865799 -0.000303838 0)
(0.865799 -0.000303837 0)
(0.865799 -0.000303839 0)
(0.865799 -0.000303836 0)
(0.865799 -0.000303847 0)
(0.865799 -0.000303848 0)
(0.865799 -0.000303849 0)
(0.865799 -0.000303842 0)
(0.865799 -0.000303843 0)
(0.865799 -0.000303844 0)
(0.865799 -0.000303848 0)
(0.865799 -0.00030384 0)
(0.865799 -0.000303849 0)
(0.865799 -0.000303841 0)
(0.865799 -0.000303847 0)
(0.865799 -0.000303843 0)
(0.865799 -0.000303844 0)
(0.865799 -0.000303833 0)
(0.865799 -0.000303831 0)
(0.865799 -0.000303817 0)
(0.865799 -0.000303803 0)
(0.865799 -0.000303774 0)
(0.865798 -0.000303738 0)
(0.865798 -0.000303676 0)
(0.865797 -0.000303579 0)
(0.865796 -0.000303417 0)
(0.865794 -0.00030319 0)
(0.865791 -0.000302857 0)
(0.865787 -0.000302388 0)
(0.86578 -0.000301808 0)
(0.865771 -0.000301139 0)
(0.865759 -0.000300722 0)
(0.865747 -0.000300832 0)
(0.865728 -0.000301261 0)
(0.865721 -0.000292917 0)
(0.865547 -0.000238839 0)
(0.865251 -7.22706e-05 0)
(0.86318 -0.000218142 0)
(0.960416 0.135845 0)
(1.02545 0.0244607 0)
(0.976305 0.00338635 0)
(0.987353 0.000867524 0)
(0.982967 0.000136256 0)
(0.984815 0.000642582 0)
(0.983683 0.00064603 0)
(0.983534 0.000707532 0)
(0.982959 0.000655687 0)
(0.982635 0.000626761 0)
(0.982295 0.000586055 0)
(0.982049 0.000555381 0)
(0.98184 0.000526423 0)
(0.981681 0.000503119 0)
(0.981558 0.000484424 0)
(0.981466 0.000469683 0)
(0.981397 0.000458022 0)
(0.981348 0.000449316 0)
(0.981314 0.000442869 0)
(0.981289 0.000438286 0)
(0.981273 0.000434982 0)
(0.981262 0.000432635 0)
(0.981254 0.000430989 0)
(0.981249 0.000429999 0)
(0.981246 0.000429303 0)
(0.981244 0.000428862 0)
(0.981242 0.000428512 0)
(0.981241 0.000428285 0)
(0.981241 0.00042817 0)
(0.98124 0.000428119 0)
(0.98124 0.00042807 0)
(0.98124 0.000428054 0)
(0.98124 0.000428005 0)
(0.98124 0.000428013 0)
(0.98124 0.000427993 0)
(0.98124 0.000427971 0)
(0.98124 0.000427952 0)
(0.98124 0.00042797 0)
(0.98124 0.000427968 0)
(0.98124 0.000427967 0)
(0.98124 0.000427945 0)
(0.98124 0.000427984 0)
(0.981239 0.00042796 0)
(0.981239 0.000427963 0)
(0.981239 0.000427935 0)
(0.981239 0.000427943 0)
(0.981239 0.000427925 0)
(0.981239 0.00042792 0)
(0.981239 0.000427913 0)
(0.981239 0.000427941 0)
(0.981239 0.000427927 0)
(0.981239 0.000427942 0)
(0.981239 0.000427944 0)
(0.981239 0.000427969 0)
(0.981239 0.000427947 0)
(0.981239 0.000427966 0)
(0.981239 0.000427958 0)
(0.981239 0.000427973 0)
(0.981239 0.00042795 0)
(0.981239 0.000427968 0)
(0.981239 0.00042797 0)
(0.981239 0.00042798 0)
(0.981239 0.000427964 0)
(0.981239 0.000427967 0)
(0.981239 0.000427955 0)
(0.981239 0.000427959 0)
(0.981239 0.000427943 0)
(0.981239 0.000427947 0)
(0.981239 0.000427939 0)
(0.981239 0.00042795 0)
(0.981239 0.000427944 0)
(0.981239 0.000427953 0)
(0.981239 0.000427943 0)
(0.981239 0.000427953 0)
(0.981239 0.000427941 0)
(0.981239 0.000427954 0)
(0.981239 0.000427945 0)
(0.981239 0.000427952 0)
(0.981239 0.00042795 0)
(0.981239 0.000427969 0)
(0.981239 0.000427977 0)
(0.981239 0.000428004 0)
(0.981239 0.00042803 0)
(0.981239 0.000428087 0)
(0.981238 0.00042816 0)
(0.981238 0.000428286 0)
(0.981237 0.000428474 0)
(0.981236 0.000428784 0)
(0.981234 0.000429231 0)
(0.98123 0.000429877 0)
(0.981226 0.000430784 0)
(0.981219 0.000431934 0)
(0.98121 0.000433333 0)
(0.981197 0.000434453 0)
(0.981182 0.000435302 0)
(0.981156 0.000436701 0)
(0.981134 0.000459555 0)
(0.980909 0.000570383 0)
(0.980539 0.000945337 0)
(0.977587 0.00117994 0)
(0.985036 0.123207 0)
(1.05959 0.0287032 0)
(1.01374 0.00475274 0)
(1.02587 0.000759673 0)
(1.02089 -0.000137694 0)
(1.02297 0.000491938 0)
(1.0218 0.000527148 0)
(1.02176 0.000606571 0)
(1.02123 0.000540404 0)
(1.02097 0.000498769 0)
(1.02067 0.000442292 0)
(1.02045 0.000398361 0)
(1.02026 0.000357005 0)
(1.02012 0.000322621 0)
(1.02001 0.000295821 0)
(1.01993 0.000274612 0)
(1.01987 0.000257681 0)
(1.01982 0.000244975 0)
(1.01979 0.000235598 0)
(1.01977 0.000228794 0)
(1.01975 0.000223846 0)
(1.01974 0.000220372 0)
(1.01973 0.000217972 0)
(1.01973 0.000216486 0)
(1.01973 0.000215431 0)
(1.01972 0.000214749 0)
(1.01972 0.000214254 0)
(1.01972 0.000213934 0)
(1.01972 0.000213769 0)
(1.01972 0.000213681 0)
(1.01972 0.000213598 0)
(1.01972 0.000213574 0)
(1.01972 0.000213521 0)
(1.01972 0.000213521 0)
(1.01972 0.000213488 0)
(1.01972 0.000213454 0)
(1.01972 0.000213428 0)
(1.01972 0.000213451 0)
(1.01972 0.000213451 0)
(1.01972 0.000213458 0)
(1.01972 0.000213435 0)
(1.01972 0.00021347 0)
(1.01972 0.000213448 0)
(1.01972 0.000213451 0)
(1.01972 0.000213415 0)
(1.01972 0.000213416 0)
(1.01972 0.000213393 0)
(1.01972 0.000213388 0)
(1.01972 0.000213375 0)
(1.01972 0.000213411 0)
(1.01972 0.000213401 0)
(1.01972 0.000213417 0)
(1.01972 0.00021342 0)
(1.01972 0.000213453 0)
(1.01972 0.000213429 0)
(1.01972 0.000213446 0)
(1.01972 0.000213435 0)
(1.01972 0.000213457 0)
(1.01972 0.000213436 0)
(1.01972 0.000213456 0)
(1.01972 0.00021346 0)
(1.01972 0.000213474 0)
(1.01972 0.000213456 0)
(1.01972 0.00021346 0)
(1.01972 0.00021344 0)
(1.01972 0.000213443 0)
(1.01972 0.000213422 0)
(1.01972 0.000213429 0)
(1.01972 0.000213418 0)
(1.01972 0.000213431 0)
(1.01972 0.000213422 0)
(1.01972 0.000213437 0)
(1.01972 0.000213424 0)
(1.01972 0.000213436 0)
(1.01972 0.000213422 0)
(1.01972 0.000213436 0)
(1.01972 0.000213426 0)
(1.01972 0.000213435 0)
(1.01972 0.000213434 0)
(1.01972 0.00021346 0)
(1.01972 0.000213476 0)
(1.01972 0.000213517 0)
(1.01972 0.000213558 0)
(1.01972 0.00021364 0)
(1.01972 0.00021375 0)
(1.01972 0.00021394 0)
(1.01972 0.000214221 0)
(1.01972 0.000214672 0)
(1.01971 0.000215332 0)
(1.01971 0.000216283 0)
(1.01971 0.000217622 0)
(1.0197 0.000219345 0)
(1.01969 0.000221548 0)
(1.01968 0.000223602 0)
(1.01966 0.000226272 0)
(1.01963 0.000231041 0)
(1.0196 0.000272647 0)
(1.01935 0.000446009 0)
(1.01899 0.00105284 0)
(1.01588 0.001772 0)
(0.988606 0.109864 0)
(1.06804 0.031022 0)
(1.02558 0.00577184 0)
(1.03848 0.00061603 0)
(1.0331 -0.000345983 0)
(1.03535 0.000357083 0)
(1.03419 0.000426311 0)
(1.03426 0.000517036 0)
(1.0338 0.000441568 0)
(1.0336 0.000389748 0)
(1.03334 0.000321402 0)
(1.03317 0.000267244 0)
(1.03301 0.000216593 0)
(1.03289 0.000174167 0)
(1.0328 0.000140565 0)
(1.03273 0.000113807 0)
(1.03267 9.22648e-05 0)
(1.03264 7.58941e-05 0)
(1.03261 6.3659e-05 0)
(1.03259 5.45138e-05 0)
(1.03257 4.78683e-05 0)
(1.03256 4.33948e-05 0)
(1.03256 4.03101e-05 0)
(1.03255 3.8365e-05 0)
(1.03255 3.69897e-05 0)
(1.03255 3.60966e-05 0)
(1.03255 3.54702e-05 0)
(1.03255 3.50639e-05 0)
(1.03255 3.48406e-05 0)
(1.03255 3.47128e-05 0)
(1.03255 3.46073e-05 0)
(1.03255 3.45793e-05 0)
(1.03255 3.45217e-05 0)
(1.03255 3.45097e-05 0)
(1.03255 3.44642e-05 0)
(1.03255 3.44185e-05 0)
(1.03255 3.43893e-05 0)
(1.03255 3.44183e-05 0)
(1.03255 3.44195e-05 0)
(1.03255 3.44298e-05 0)
(1.03255 3.44073e-05 0)
(1.03255 3.44406e-05 0)
(1.03255 3.44214e-05 0)
(1.03255 3.44229e-05 0)
(1.03255 3.43778e-05 0)
(1.03255 3.43729e-05 0)
(1.03255 3.43475e-05 0)
(1.03255 3.43416e-05 0)
(1.03255 3.43223e-05 0)
(1.03255 3.43614e-05 0)
(1.03255 3.43579e-05 0)
(1.03255 3.43784e-05 0)
(1.03255 3.43802e-05 0)
(1.03255 3.44153e-05 0)
(1.03255 3.4393e-05 0)
(1.03255 3.44103e-05 0)
(1.03255 3.43952e-05 0)
(1.03255 3.44219e-05 0)
(1.03255 3.44048e-05 0)
(1.03255 3.44277e-05 0)
(1.03255 3.44347e-05 0)
(1.03255 3.44507e-05 0)
(1.03255 3.44308e-05 0)
(1.03255 3.44339e-05 0)
(1.03255 3.44082e-05 0)
(1.03255 3.44105e-05 0)
(1.03255 3.43849e-05 0)
(1.03255 3.43917e-05 0)
(1.03255 3.43795e-05 0)
(1.03255 3.43958e-05 0)
(1.03255 3.43846e-05 0)
(1.03255 3.44015e-05 0)
(1.03255 3.43877e-05 0)
(1.03255 3.44014e-05 0)
(1.03255 3.4387e-05 0)
(1.03255 3.44001e-05 0)
(1.03255 3.43889e-05 0)
(1.03255 3.44011e-05 0)
(1.03255 3.44009e-05 0)
(1.03255 3.44323e-05 0)
(1.03255 3.44561e-05 0)
(1.03255 3.45095e-05 0)
(1.03255 3.4564e-05 0)
(1.03255 3.46698e-05 0)
(1.03254 3.48136e-05 0)
(1.03254 3.5061e-05 0)
(1.03254 3.54244e-05 0)
(1.03254 3.60028e-05 0)
(1.03254 3.68486e-05 0)
(1.03254 3.80642e-05 0)
(1.03253 3.97814e-05 0)
(1.03253 4.20251e-05 0)
(1.03252 4.50223e-05 0)
(1.03251 4.81634e-05 0)
(1.03249 5.35251e-05 0)
(1.03246 6.30657e-05 0)
(1.03242 0.00012503 0)
(1.03218 0.000351618 0)
(1.03185 0.00117214 0)
(1.02901 0.00230041 0)
(0.986399 0.0981692 0)
(1.0683 0.0322555 0)
(1.02896 0.00660671 0)
(1.04243 0.000578093 0)
(1.03676 -0.000402956 0)
(1.03917 0.000342509 0)
(1.03801 0.000444094 0)
(1.03819 0.000541353 0)
(1.03779 0.000461001 0)
(1.03766 0.000402269 0)
(1.03746 0.000326557 0)
(1.03733 0.000266118 0)
(1.0372 0.00021039 0)
(1.03711 0.000164022 0)
(1.03703 0.000125202 0)
(1.03697 9.4118e-05 0)
(1.03693 6.8976e-05 0)
(1.0369 4.97808e-05 0)
(1.03687 3.5428e-05 0)
(1.03686 2.46639e-05 0)
(1.03685 1.68143e-05 0)
(1.03684 1.1493e-05 0)
(1.03683 7.80443e-06 0)
(1.03683 5.44165e-06 0)
(1.03683 3.77026e-06 0)
(1.03682 2.66478e-06 0)
(1.03682 1.88091e-06 0)
(1.03682 1.38877e-06 0)
(1.03682 1.11106e-06 0)
(1.03682 9.49619e-07 0)
(1.03682 8.26226e-07 0)
(1.03682 7.94354e-07 0)
(1.03682 7.30109e-07 0)
(1.03682 7.03675e-07 0)
(1.03682 6.4929e-07 0)
(1.03682 5.95369e-07 0)
(1.03682 5.62582e-07 0)
(1.03682 5.94667e-07 0)
(1.03682 5.9962e-07 0)
(1.03682 6.12818e-07 0)
(1.03682 5.89524e-07 0)
(1.03682 6.19568e-07 0)
(1.03682 6.0384e-07 0)
(1.03682 6.06534e-07 0)
(1.03682 5.5281e-07 0)
(1.03682 5.40796e-07 0)
(1.03682 5.12313e-07 0)
(1.03682 5.05871e-07 0)
(1.03682 4.823e-07 0)
(1.03682 5.21074e-07 0)
(1.03682 5.22973e-07 0)
(1.03682 5.47712e-07 0)
(1.03682 5.49647e-07 0)
(1.03682 5.86231e-07 0)
(1.03682 5.65551e-07 0)
(1.03682 5.82998e-07 0)
(1.03682 5.64922e-07 0)
(1.03682 5.95811e-07 0)
(1.03682 5.83655e-07 0)
(1.03682 6.08289e-07 0)
(1.03682 6.18376e-07 0)
(1.03682 6.36564e-07 0)
(1.03682 6.15465e-07 0)
(1.03682 6.17092e-07 0)
(1.03682 5.86541e-07 0)
(1.03682 5.87315e-07 0)
(1.03682 5.59279e-07 0)
(1.03682 5.64383e-07 0)
(1.03682 5.50759e-07 0)
(1.03682 5.69136e-07 0)
(1.03682 5.56975e-07 0)
(1.03682 5.74359e-07 0)
(1.03682 5.59945e-07 0)
(1.03682 5.74598e-07 0)
(1.03682 5.6085e-07 0)
(1.03682 5.72666e-07 0)
(1.03682 5.60536e-07 0)
(1.03682 5.75283e-07 0)
(1.03682 5.77265e-07 0)
(1.03682 6.12686e-07 0)
(1.03682 6.43378e-07 0)
(1.03682 7.06963e-07 0)
(1.03682 7.7418e-07 0)
(1.03682 8.99201e-07 0)
(1.03682 1.07247e-06 0)
(1.03682 1.36804e-06 0)
(1.03682 1.80227e-06 0)
(1.03682 2.52498e-06 0)
(1.03682 3.56292e-06 0)
(1.03682 5.02599e-06 0)
(1.03681 7.08264e-06 0)
(1.03681 9.79676e-06 0)
(1.0368 1.35652e-05 0)
(1.03679 1.78613e-05 0)
(1.03678 2.59565e-05 0)
(1.03674 4.02517e-05 0)
(1.0367 0.000121043 0)
(1.03647 0.000386646 0)
(1.03621 0.00140312 0)
(1.03381 0.00285077 0)
(0.983075 0.0875532 0)
(1.06617 0.0325724 0)
(1.02959 0.00720461 0)
(1.04348 0.000559816 0)
(1.03761 -0.000411811 0)
(1.04013 0.000352155 0)
(1.03899 0.000484538 0)
(1.03928 0.000586242 0)
(1.03894 0.000503606 0)
(1.03887 0.000439821 0)
(1.03872 0.000358657 0)
(1.03863 0.000293017 0)
(1.03853 0.000232613 0)
(1.03847 0.000182086 0)
(1.03841 0.000139441 0)
(1.03837 0.000105253 0)
(1.03833 7.75449e-05 0)
(1.03831 5.64125e-05 0)
(1.03829 4.07447e-05 0)
(1.03828 2.91468e-05 0)
(1.03827 2.06229e-05 0)
(1.03826 1.46217e-05 0)
(1.03826 1.04331e-05 0)
(1.03825 7.71251e-06 0)
(1.03825 5.77901e-06 0)
(1.03825 4.47288e-06 0)
(1.03825 3.55369e-06 0)
(1.03825 2.98552e-06 0)
(1.03825 2.66169e-06 0)
(1.03825 2.47665e-06 0)
(1.03825 2.33848e-06 0)
(1.03825 2.30116e-06 0)
(1.03825 2.22926e-06 0)
(1.03825 2.18774e-06 0)
(1.03825 2.12562e-06 0)
(1.03825 2.0686e-06 0)
(1.03825 2.03285e-06 0)
(1.03825 2.06469e-06 0)
(1.03825 2.07342e-06 0)
(1.03825 2.09089e-06 0)
(1.03825 2.06705e-06 0)
(1.03825 2.09327e-06 0)
(1.03825 2.07824e-06 0)
(1.03825 2.08513e-06 0)
(1.03825 2.0254e-06 0)
(1.03825 2.00575e-06 0)
(1.03825 1.97338e-06 0)
(1.03825 1.96799e-06 0)
(1.03825 1.94249e-06 0)
(1.03825 1.97934e-06 0)
(1.03825 1.9849e-06 0)
(1.03825 2.01356e-06 0)
(1.03825 2.01614e-06 0)
(1.03825 2.05313e-06 0)
(1.03825 2.03318e-06 0)
(1.03825 2.05092e-06 0)
(1.03825 2.03034e-06 0)
(1.03825 2.06415e-06 0)
(1.03825 2.05821e-06 0)
(1.03825 2.08477e-06 0)
(1.03825 2.09683e-06 0)
(1.03825 2.11691e-06 0)
(1.03825 2.09532e-06 0)
(1.03825 2.09559e-06 0)
(1.03825 2.06038e-06 0)
(1.03825 2.05925e-06 0)
(1.03825 2.02996e-06 0)
(1.03825 2.03346e-06 0)
(1.03825 2.01823e-06 0)
(1.03825 2.03828e-06 0)
(1.03825 2.02635e-06 0)
(1.03825 2.04342e-06 0)
(1.03825 2.0285e-06 0)
(1.03825 2.04361e-06 0)
(1.03825 2.03061e-06 0)
(1.03825 2.04141e-06 0)
(1.03825 2.02802e-06 0)
(1.03825 2.0448e-06 0)
(1.03825 2.0497e-06 0)
(1.03825 2.08827e-06 0)
(1.03825 2.12468e-06 0)
(1.03825 2.19676e-06 0)
(1.03825 2.27459e-06 0)
(1.03825 2.41503e-06 0)
(1.03825 2.61199e-06 0)
(1.03825 2.94607e-06 0)
(1.03825 3.44007e-06 0)
(1.03824 4.26942e-06 0)
(1.03824 5.48922e-06 0)
(1.03824 7.17301e-06 0)
(1.03824 9.52234e-06 0)
(1.03824 1.26475e-05 0)
(1.03823 1.71346e-05 0)
(1.03822 2.25781e-05 0)
(1.03821 3.31749e-05 0)
(1.03818 5.17134e-05 0)
(1.03814 0.000148987 0)
(1.03793 0.000449179 0)
(1.03774 0.00163077 0)
(1.03586 0.0033173 0)
(0.979966 0.0778405 0)
(1.06355 0.0321207 0)
(1.02936 0.00755249 0)
(1.04357 0.000527125 0)
(1.03755 -0.000414153 0)
(1.04017 0.000350202 0)
(1.03904 0.000510007 0)
(1.03942 0.000614006 0)
(1.03914 0.000531572 0)
(1.03914 0.000464778 0)
(1.03903 0.000380495 0)
(1.03898 0.000311416 0)
(1.03892 0.000247756 0)
(1.03887 0.00019413 0)
(1.03884 0.000148891 0)
(1.03881 0.000112564 0)
(1.03878 8.30004e-05 0)
(1.03877 6.03741e-05 0)
(1.03875 4.36004e-05 0)
(1.03874 3.11641e-05 0)
(1.03874 2.1979e-05 0)
(1.03873 1.54753e-05 0)
(1.03873 1.09345e-05 0)
(1.03873 7.97466e-06 0)
(1.03873 5.88287e-06 0)
(1.03872 4.4707e-06 0)
(1.03872 3.48337e-06 0)
(1.03872 2.83258e-06 0)
(1.03872 2.47189e-06 0)
(1.03872 2.27053e-06 0)
(1.03872 2.11803e-06 0)
(1.03872 2.0714e-06 0)
(1.03872 1.99261e-06 0)
(1.03872 1.93766e-06 0)
(1.03872 1.86814e-06 0)
(1.03872 1.81092e-06 0)
(1.03872 1.77441e-06 0)
(1.03872 1.80365e-06 0)
(1.03872 1.8151e-06 0)
(1.03872 1.83734e-06 0)
(1.03872 1.81409e-06 0)
(1.03872 1.8368e-06 0)
(1.03872 1.81944e-06 0)
(1.03872 1.83167e-06 0)
(1.03872 1.76995e-06 0)
(1.03872 1.74287e-06 0)
(1.03872 1.70593e-06 0)
(1.03872 1.70254e-06 0)
(1.03872 1.67743e-06 0)
(1.03872 1.71129e-06 0)
(1.03872 1.71838e-06 0)
(1.03872 1.75007e-06 0)
(1.03872 1.75364e-06 0)
(1.03872 1.79045e-06 0)
(1.03872 1.77033e-06 0)
(1.03872 1.78848e-06 0)
(1.03872 1.76611e-06 0)
(1.03872 1.80128e-06 0)
(1.03872 1.80214e-06 0)
(1.03872 1.83147e-06 0)
(1.03872 1.84435e-06 0)
(1.03872 1.86565e-06 0)
(1.03872 1.84426e-06 0)
(1.03872 1.84371e-06 0)
(1.03872 1.80427e-06 0)
(1.03872 1.80071e-06 0)
(1.03872 1.77119e-06 0)
(1.03872 1.77373e-06 0)
(1.03872 1.75689e-06 0)
(1.03872 1.77793e-06 0)
(1.03872 1.767e-06 0)
(1.03872 1.78352e-06 0)
(1.03872 1.76817e-06 0)
(1.03872 1.78313e-06 0)
(1.03872 1.77071e-06 0)
(1.03872 1.78097e-06 0)
(1.03872 1.76628e-06 0)
(1.03872 1.78433e-06 0)
(1.03872 1.79261e-06 0)
(1.03872 1.83362e-06 0)
(1.03872 1.87431e-06 0)
(1.03872 1.95317e-06 0)
(1.03872 2.03931e-06 0)
(1.03872 2.19277e-06 0)
(1.03872 2.40894e-06 0)
(1.03872 2.77312e-06 0)
(1.03872 3.3336e-06 0)
(1.03872 4.21259e-06 0)
(1.03872 5.5141e-06 0)
(1.03872 7.32194e-06 0)
(1.03872 9.86456e-06 0)
(1.03871 1.32986e-05 0)
(1.03871 1.8397e-05 0)
(1.0387 2.49127e-05 0)
(1.03869 3.81392e-05 0)
(1.03866 6.09842e-05 0)
(1.03863 0.000172699 0)
(1.03847 0.000499281 0)
(1.03833 0.00180388 0)
(1.037 0.00365521 0)
(0.977359 0.0689958 0)
(1.06102 0.0310619 0)
(1.02892 0.00767578 0)
(1.04336 0.000483498 0)
(1.03723 -0.000413284 0)
(1.03992 0.000336969 0)
(1.0388 0.0005193 0)
(1.03926 0.000623491 0)
(1.03904 0.000543412 0)
(1.03909 0.000475623 0)
(1.03903 0.000390628 0)
(1.03902 0.000320151 0)
(1.03899 0.000255109 0)
(1.03897 0.000200013 0)
(1.03895 0.00015344 0)
(1.03893 0.000115959 0)
(1.03892 8.53258e-05 0)
(1.03891 6.17779e-05 0)
(1.0389 4.42904e-05 0)
(1.03889 3.12687e-05 0)
(1.03889 2.1619e-05 0)
(1.03889 1.47981e-05 0)
(1.03889 1.00501e-05 0)
(1.03888 6.96178e-06 0)
(1.03888 4.80249e-06 0)
(1.03888 3.36252e-06 0)
(1.03888 2.35384e-06 0)
(1.03888 1.66379e-06 0)
(1.03888 1.27543e-06 0)
(1.03888 1.0577e-06 0)
(1.03888 8.87546e-07 0)
(1.03888 8.25316e-07 0)
(1.03888 7.40524e-07 0)
(1.03888 6.74648e-07 0)
(1.03888 5.99032e-07 0)
(1.03888 5.4197e-07 0)
(1.03888 5.06787e-07 0)
(1.03888 5.32614e-07 0)
(1.03888 5.45566e-07 0)
(1.03888 5.72198e-07 0)
(1.03888 5.50858e-07 0)
(1.03888 5.70936e-07 0)
(1.03888 5.49825e-07 0)
(1.03888 5.65977e-07 0)
(1.03888 5.06131e-07 0)
(1.03888 4.72993e-07 0)
(1.03888 4.31552e-07 0)
(1.03888 4.29847e-07 0)
(1.03888 4.06549e-07 0)
(1.03888 4.37323e-07 0)
(1.03888 4.43956e-07 0)
(1.03888 4.77491e-07 0)
(1.03888 4.81958e-07 0)
(1.03888 5.18294e-07 0)
(1.03888 4.97536e-07 0)
(1.03888 5.16164e-07 0)
(1.03888 4.92885e-07 0)
(1.03888 5.27767e-07 0)
(1.03888 5.35388e-07 0)
(1.03888 5.68502e-07 0)
(1.03888 5.82019e-07 0)
(1.03888 6.03222e-07 0)
(1.03888 5.82567e-07 0)
(1.03888 5.81859e-07 0)
(1.03888 5.39175e-07 0)
(1.03888 5.32347e-07 0)
(1.03888 5.03223e-07 0)
(1.03888 5.05818e-07 0)
(1.03888 4.8762e-07 0)
(1.03888 5.08694e-07 0)
(1.03888 4.98888e-07 0)
(1.03888 5.14835e-07 0)
(1.03888 4.99277e-07 0)
(1.03888 5.13494e-07 0)
(1.03888 5.01293e-07 0)
(1.03888 5.11281e-07 0)
(1.03888 4.9594e-07 0)
(1.03888 5.1439e-07 0)
(1.03888 5.26129e-07 0)
(1.03888 5.68997e-07 0)
(1.03888 6.12726e-07 0)
(1.03888 6.96607e-07 0)
(1.03888 7.89053e-07 0)
(1.03888 9.59382e-07 0)
(1.03888 1.19508e-06 0)
(1.03888 1.58227e-06 0)
(1.03888 2.17281e-06 0)
(1.03888 3.06599e-06 0)
(1.03888 4.36652e-06 0)
(1.03888 6.21398e-06 0)
(1.03888 8.85757e-06 0)
(1.03888 1.24964e-05 0)
(1.03887 1.80751e-05 0)
(1.03887 2.5517e-05 0)
(1.03886 4.11245e-05 0)
(1.03884 6.77522e-05 0)
(1.03881 0.000190681 0)
(1.03869 0.000533671 0)
(1.03862 0.00191704 0)
(1.03784 0.00386452 0)
(0.975244 0.0609224 0)
(1.05874 0.0295235 0)
(1.02845 0.00760354 0)
(1.04306 0.000435674 0)
(1.03684 -0.000407372 0)
(1.03958 0.000316534 0)
(1.03849 0.000515476 0)
(1.03902 0.000617967 0)
(1.03884 0.000541917 0)
(1.03895 0.0004749 0)
(1.03893 0.000391297 0)
(1.03895 0.000321272 0)
(1.03895 0.000256552 0)
(1.03895 0.000201481 0)
(1.03895 0.000154786 0)
(1.03895 0.000117118 0)
(1.03895 8.62152e-05 0)
(1.03894 6.23678e-05 0)
(1.03894 4.46401e-05 0)
(1.03894 3.13978e-05 0)
(1.03894 2.15432e-05 0)
(1.03894 1.45773e-05 0)
(1.03894 9.73761e-06 0)
(1.03894 6.58764e-06 0)
(1.03893 4.39171e-06 0)
(1.03893 2.9306e-06 0)
(1.03893 1.92332e-06 0)
(1.03893 1.24933e-06 0)
(1.03893 8.50083e-07 0)
(1.03893 6.27101e-07 0)
(1.03893 4.48007e-07 0)
(1.03893 3.74639e-07 0)
(1.03893 2.85169e-07 0)
(1.03893 2.09675e-07 0)
(1.03893 1.29155e-07 0)
(1.03893 7.30964e-08 0)
(1.03893 4.03782e-08 0)
(1.03893 6.28272e-08 0)
(1.03893 7.50983e-08 0)
(1.03893 1.05697e-07 0)
(1.03893 8.82115e-08 0)
(1.03893 1.062e-07 0)
(1.03893 8.14e-08 0)
(1.03893 9.90942e-08 0)
(1.03893 4.29898e-08 0)
(1.03893 6.29116e-09 0)
(1.03893 -3.87446e-08 0)
(1.03893 -3.92527e-08 0)
(1.03893 -6.04859e-08 0)
(1.03893 -3.24561e-08 0)
(1.03893 -2.91486e-08 0)
(1.03893 5.79881e-09 0)
(1.03893 1.03165e-08 0)
(1.03893 4.62451e-08 0)
(1.03893 2.46255e-08 0)
(1.03893 4.45238e-08 0)
(1.03893 2.09482e-08 0)
(1.03893 5.41161e-08 0)
(1.03893 6.73984e-08 0)
(1.03893 1.05679e-07 0)
(1.03893 1.21281e-07 0)
(1.03893 1.40899e-07 0)
(1.03893 1.2109e-07 0)
(1.03893 1.20073e-07 0)
(1.03893 7.53858e-08 0)
(1.03893 6.42792e-08 0)
(1.03893 3.56561e-08 0)
(1.03893 4.00124e-08 0)
(1.03893 2.07604e-08 0)
(1.03893 4.12681e-08 0)
(1.03893 3.14886e-08 0)
(1.03893 4.70203e-08 0)
(1.03893 3.10221e-08 0)
(1.03893 4.41892e-08 0)
(1.03893 3.1797e-08 0)
(1.03893 4.13983e-08 0)
(1.03893 2.64651e-08 0)
(1.03893 4.45837e-08 0)
(1.03893 5.95013e-08 0)
(1.03893 1.04286e-07 0)
(1.03893 1.50761e-07 0)
(1.03893 2.37989e-07 0)
(1.03893 3.34167e-07 0)
(1.03893 5.08484e-07 0)
(1.03893 7.50531e-07 0)
(1.03893 1.14485e-06 0)
(1.03893 1.72102e-06 0)
(1.03893 2.59928e-06 0)
(1.03893 3.89514e-06 0)
(1.03893 5.75888e-06 0)
(1.03893 8.45452e-06 0)
(1.03893 1.22181e-05 0)
(1.03893 1.81435e-05 0)
(1.03893 2.63163e-05 0)
(1.03892 4.38227e-05 0)
(1.03891 7.33465e-05 0)
(1.03888 0.000203632 0)
(1.03882 0.000553332 0)
(1.03882 0.00197254 0)
(1.03856 0.00395346 0)
(0.973544 0.0534991 0)
(1.05675 0.0275997 0)
(1.02802 0.00735993 0)
(1.04276 0.000386938 0)
(1.03647 -0.000395878 0)
(1.03925 0.000291006 0)
(1.03816 0.000499945 0)
(1.03876 0.000598999 0)
(1.03863 0.000528233 0)
(1.03879 0.00046351 0)
(1.0388 0.000383092 0)
(1.03886 0.000315138 0)
(1.03888 0.000252227 0)
(1.03891 0.000198482 0)
(1.03892 0.000152788 0)
(1.03893 0.00011584 0)
(1.03894 8.5423e-05 0)
(1.03894 6.18714e-05 0)
(1.03895 4.43569e-05 0)
(1.03895 3.1244e-05 0)
(1.03895 2.14396e-05 0)
(1.03895 1.44989e-05 0)
(1.03895 9.68337e-06 0)
(1.03895 6.54107e-06 0)
(1.03895 4.34469e-06 0)
(1.03895 2.87487e-06 0)
(1.03895 1.87018e-06 0)
(1.03895 1.20615e-06 0)
(1.03895 8.08949e-07 0)
(1.03895 5.92112e-07 0)
(1.03895 4.14079e-07 0)
(1.03895 3.36883e-07 0)
(1.03895 2.44637e-07 0)
(1.03895 1.62123e-07 0)
(1.03895 7.971e-08 0)
(1.03895 2.41745e-08 0)
(1.03895 -5.48142e-09 0)
(1.03895 1.4089e-08 0)
(1.03895 2.60659e-08 0)
(1.03895 6.02364e-08 0)
(1.03895 4.60897e-08 0)
(1.03895 6.28501e-08 0)
(1.03895 3.41252e-08 0)
(1.03895 5.10007e-08 0)
(1.03895 1.55524e-09 0)
(1.03895 -3.71192e-08 0)
(1.03895 -8.49906e-08 0)
(1.03895 -8.6385e-08 0)
(1.03895 -1.05732e-07 0)
(1.03895 -8.00737e-08 0)
(1.03895 -7.94448e-08 0)
(1.03895 -4.49678e-08 0)
(1.03895 -3.96147e-08 0)
(1.03895 -4.33019e-09 0)
(1.03895 -2.68536e-08 0)
(1.03895 -6.84058e-09 0)
(1.03895 -2.9035e-08 0)
(1.03895 2.15478e-09 0)
(1.03895 2.01857e-08 0)
(1.03895 6.36349e-08 0)
(1.03895 8.11101e-08 0)
(1.03895 9.85702e-08 0)
(1.03895 7.91412e-08 0)
(1.03895 7.88203e-08 0)
(1.03895 3.41727e-08 0)
(1.03895 1.85483e-08 0)
(1.03895 -9.69407e-09 0)
(1.03895 -3.74559e-09 0)
(1.03895 -2.32978e-08 0)
(1.03895 -4.81121e-09 0)
(1.03895 -1.4379e-08 0)
(1.03895 5.61113e-10 0)
(1.03895 -1.52132e-08 0)
(1.03895 -3.00653e-09 0)
(1.03895 -1.60426e-08 0)
(1.03895 -7.32007e-09 0)
(1.03895 -2.07722e-08 0)
(1.03895 -3.38032e-09 0)
(1.03895 1.42851e-08 0)
(1.03895 5.97833e-08 0)
(1.03895 1.06267e-07 0)
(1.03895 1.94205e-07 0)
(1.03895 2.91082e-07 0)
(1.03895 4.55792e-07 0)
(1.03895 6.90093e-07 0)
(1.03895 1.0774e-06 0)
(1.03895 1.64435e-06 0)
(1.03895 2.51184e-06 0)
(1.03895 3.79742e-06 0)
(1.03895 5.65142e-06 0)
(1.03895 8.34769e-06 0)
(1.03895 1.21502e-05 0)
(1.03895 1.82675e-05 0)
(1.03895 2.69274e-05 0)
(1.03895 4.57346e-05 0)
(1.03894 7.71172e-05 0)
(1.03893 0.000210696 0)
(1.03892 0.000557965 0)
(1.03898 0.00197226 0)
(1.03921 0.00393005 0)
(0.972179 0.0466189 0)
(1.05502 0.0253634 0)
(1.02765 0.00696597 0)
(1.04248 0.000338889 0)
(1.03614 -0.000378505 0)
(1.03893 0.000261895 0)
(1.03786 0.000473806 0)
(1.03851 0.000567771 0)
(1.03842 0.000503211 0)
(1.03862 0.000442101 0)
(1.03867 0.000366408 0)
(1.03876 0.000301956 0)
(1.03881 0.000242179 0)
(1.03885 0.000190925 0)
(1.03888 0.000147256 0)
(1.03891 0.000111867 0)
(1.03892 8.26349e-05 0)
(1.03893 5.99352e-05 0)
(1.03894 4.30577e-05 0)
(1.03895 3.03978e-05 0)
(1.03895 2.08849e-05 0)
(1.03895 1.41386e-05 0)
(1.03896 9.46735e-06 0)
(1.03896 6.41473e-06 0)
(1.03896 4.27272e-06 0)
(1.03896 2.83017e-06 0)
(1.03896 1.84935e-06 0)
(1.03896 1.20282e-06 0)
(1.03896 8.11371e-07 0)
(1.03896 5.99023e-07 0)
(1.03896 4.21206e-07 0)
(1.03896 3.39714e-07 0)
(1.03896 2.4653e-07 0)
(1.03896 1.59526e-07 0)
(1.03896 7.85083e-08 0)
(1.03896 2.31115e-08 0)
(1.03896 -2.98852e-09 0)
(1.03896 1.43849e-08 0)
(1.03896 2.66469e-08 0)
(1.03896 6.35816e-08 0)
(1.03896 5.17365e-08 0)
(1.03896 6.83318e-08 0)
(1.03896 3.55683e-08 0)
(1.03896 4.97832e-08 0)
(1.03896 8.87257e-09 0)
(1.03896 -2.99985e-08 0)
(1.03896 -7.99456e-08 0)
(1.03896 -8.41165e-08 0)
(1.03896 -1.02115e-07 0)
(1.03896 -7.86577e-08 0)
(1.03896 -7.92132e-08 0)
(1.03896 -4.72791e-08 0)
(1.03896 -4.00851e-08 0)
(1.03896 -5.69906e-09 0)
(1.03896 -2.90353e-08 0)
(1.03896 -1.04288e-08 0)
(1.03896 -2.93293e-08 0)
(1.03896 3.40254e-10 0)
(1.03896 2.21892e-08 0)
(1.03896 6.98596e-08 0)
(1.03896 8.8725e-08 0)
(1.03896 1.04326e-07 0)
(1.03896 8.43832e-08 0)
(1.03896 8.56736e-08 0)
(1.03896 4.28963e-08 0)
(1.03896 2.36841e-08 0)
(1.03896 -4.81827e-09 0)
(1.03896 1.80969e-09 0)
(1.03896 -1.70749e-08 0)
(1.03896 -1.96679e-09 0)
(1.03896 -1.09298e-08 0)
(1.03896 3.0924e-09 0)
(1.03896 -1.14808e-08 0)
(1.03896 7.11664e-11 0)
(1.03896 -1.36428e-08 0)
(1.03896 -6.28786e-09 0)
(1.03896 -1.75119e-08 0)
(1.03896 -8.02196e-10 0)
(1.03896 1.82281e-08 0)
(1.03896 6.29781e-08 0)
(1.03896 1.06477e-07 0)
(1.03896 1.92416e-07 0)
(1.03896 2.87695e-07 0)
(1.03896 4.46348e-07 0)
(1.03896 6.72888e-07 0)
(1.03896 1.04826e-06 0)
(1.03896 1.60076e-06 0)
(1.03896 2.44413e-06 0)
(1.03896 3.69124e-06 0)
(1.03896 5.49229e-06 0)
(1.03896 8.12461e-06 0)
(1.03896 1.18686e-05 0)
(1.03896 1.80019e-05 0)
(1.03897 2.68672e-05 0)
(1.03896 4.63026e-05 0)
(1.03897 7.84288e-05 0)
(1.03896 0.000211206 0)
(1.03901 0.000547414 0)
(1.03912 0.00191879 0)
(1.03982 0.00380291 0)
(0.971084 0.040192 0)
(1.05355 0.0228741 0)
(1.02733 0.00644096 0)
(1.04223 0.000292472 0)
(1.03585 -0.000354847 0)
(1.03864 0.000230629 0)
(1.03758 0.000438365 0)
(1.03829 0.000525661 0)
(1.03823 0.000467959 0)
(1.03847 0.000411597 0)
(1.03855 0.000341949 0)
(1.03867 0.000282252 0)
(1.03873 0.000226787 0)
(1.0388 0.000179068 0)
(1.03884 0.00013835 0)
(1.03888 0.000105289 0)