/*--------------------------------*- C++ -*----------------------------------*\
  =========                 |
  \\      /  F ield         | OpenFOAM: The Open Source CFD Toolbox
   \\    /   O peration     | Website:  https://openfoam.org
    \\  /    A nd           | Version:  7
     \\/     M anipulation  |
\*---------------------------------------------------------------------------*/
FoamFile
{
    version     2.0;
    format      ascii;
    class       volScalarField;
    location    "2.5";
    object      p;
}
// * * * * * * * * * * * * * * * * * * * * * * * * * * * * * * * * * * * * * //

dimensions      [0 2 -2 0 0 0 0];

internalField   nonuniform List<scalar> 
4000
(
427.13
413.894
409.838
404.563
399.877
395.088
390.483
385.936
381.477
377.073
372.718
368.401
364.116
359.855
355.615
351.391
347.18
342.979
338.787
334.603
330.423
326.249
322.077
317.909
313.743
309.58
305.417
301.256
297.096
292.937
288.778
284.62
280.462
276.305
272.148
267.991
263.835
259.678
255.522
251.366
247.209
243.053
238.897
234.741
230.585
226.429
222.273
218.117
213.961
209.805
205.65
201.494
197.338
193.182
189.026
184.87
180.714
176.558
172.403
168.247
164.091
159.935
155.779
151.623
147.467
143.311
139.156
135
130.844
126.688
122.532
118.376
114.22
110.064
105.908
101.752
97.5965
93.4406
89.2847
85.1288
80.9729
76.8171
72.6612
68.5054
64.3497
60.194
56.0384
51.8831
47.7279
43.5731
39.419
35.2656
31.1135
26.9632
22.8156
18.6712
14.5312
10.393
6.27127
2.14865
424.684
413.804
409.688
404.375
399.688
394.896
390.292
385.744
381.285
376.879
372.525
368.207
363.922
359.661
355.42
351.196
346.985
342.784
338.592
334.407
330.228
326.053
321.882
317.714
313.548
309.384
305.222
301.061
296.901
292.741
288.583
284.425
280.267
276.11
271.953
267.796
263.639
259.483
255.326
251.17
247.014
242.858
238.702
234.546
230.39
226.234
222.078
217.922
213.766
209.61
205.454
201.298
197.142
192.987
188.831
184.675
180.519
176.363
172.207
168.051
163.896
159.74
155.584
151.428
147.272
143.116
138.96
134.804
130.648
126.493
122.337
118.181
114.025
109.869
105.713
101.557
97.4012
93.2453
89.0894
84.9335
80.7776
76.6218
72.4659
68.3101
64.1544
59.9987
55.8432
51.6878
47.5326
43.3779
39.2237
35.0703
30.9182
26.7679
22.6202
18.4758
14.336
10.1983
6.0779
1.96703
423.401
413.8
409.641
404.296
399.609
394.813
390.209
385.66
381.2
376.794
372.439
368.122
363.836
359.575
355.334
351.109
346.898
342.698
338.506
334.321
330.141
325.967
321.795
317.627
313.461
309.297
305.135
300.974
296.814
292.655
288.496
284.338
280.18
276.023
271.866
267.709
263.552
259.396
255.24
251.083
246.927
242.771
238.615
234.459
230.303
226.147
221.991
217.835
213.679
209.523
205.367
201.211
197.056
192.9
188.744
184.588
180.432
176.276
172.12
167.964
163.809
159.653
155.497
151.341
147.185
143.029
138.873
134.717
130.562
126.406
122.25
118.094
113.938
109.782
105.626
101.47
97.3143
93.1584
89.0025
84.8466
80.6907
76.5348
72.379
68.2232
64.0675
59.9118
55.7562
51.6008
47.4457
43.2909
39.1367
34.9833
30.8312
26.6809
22.5332
18.3888
14.2491
10.1115
5.99177
1.88591
422.883
413.892
409.677
404.313
399.626
394.826
390.221
385.671
381.211
376.805
372.45
368.132
363.845
359.584
355.343
351.118
346.907
342.706
338.514
334.329
330.15
325.975
321.804
317.636
313.47
309.306
305.144
300.982
296.822
292.663
288.504
284.346
280.189
276.031
271.874
267.717
263.561
259.404
255.248
251.092
246.936
242.779
238.623
234.467
230.311
226.155
221.999
217.843
213.688
209.532
205.376
201.22
197.064
192.908
188.752
184.596
180.441
176.285
172.129
167.973
163.817
159.661
155.505
151.349
147.193
143.038
138.882
134.726
130.57
126.414
122.258
118.102
113.946
109.79
105.634
101.479
97.3227
93.1668
89.0109
84.855
80.6991
76.5433
72.3874
68.2316
64.0759
59.9202
55.7646
51.6092
47.4541
43.2993
39.1451
34.9917
30.8396
26.6893
22.5416
18.3972
14.2576
10.1203
5.99937
1.89071
422.544
414.003
409.742
404.359
399.67
394.865
390.261
385.709
381.25
376.843
372.487
368.169
363.882
359.621
355.38
351.155
346.944
342.743
338.551
334.366
330.187
326.012
321.84
317.672
313.506
309.342
305.18
301.019
296.859
292.699
288.541
284.383
280.225
276.068
271.911
267.754
263.597
259.441
255.284
251.128
246.972
242.816
238.66
234.504
230.348
226.192
222.036
217.88
213.724
209.568
205.412
201.256
197.1
192.945
188.789
184.633
180.477
176.321
172.165
168.009
163.853
159.698
155.542
151.386
147.23
143.074
138.918
134.762
130.606
126.45
122.295
118.139
113.983
109.827
105.671
101.515
97.3591
93.2032
89.0473
84.8914
80.7355
76.5797
72.4238
68.268
64.1123
59.9566
55.801
51.6456
47.4905
43.3357
39.1815
35.0281
30.8759
26.7256
22.5779
18.4335
14.294
10.1566
6.03474
1.92175
422.239
414.098
409.808
404.409
399.715
394.906
390.302
385.75
381.29
376.883
372.527
368.208
363.922
359.66
355.419
351.194
346.982
342.782
338.59
334.405
330.225
326.05
321.879
317.711
313.545
309.381
305.218
301.057
296.897
292.738
288.579
284.421
280.263
276.106
271.949
267.792
263.636
259.479
255.323
251.166
247.01
242.854
238.698
234.542
230.386
226.23
222.074
217.918
213.762
209.606
205.45
201.295
197.139
192.983
188.827
184.671
180.515
176.359
172.204
168.048
163.892
159.736
155.58
151.424
147.268
143.112
138.956
134.801
130.645
126.489
122.333
118.177
114.021
109.865
105.709
101.553
97.3974
93.2415
89.0856
84.9298
80.7739
76.618
72.4622
68.3064
64.1506
59.9949
55.8394
51.684
47.5288
43.374
39.2198
35.0664
30.9143
26.7639
22.6162
18.4718
14.3323
10.1953
6.07245
1.95501
421.967
414.176
409.872
404.457
399.757
394.944
390.341
385.788
381.328
376.921
372.564
368.246
363.959
359.697
355.456
351.231
347.019
342.819
338.627
334.441
330.262
326.087
321.916
317.747
313.581
309.417
305.255
301.094
296.934
292.774
288.616
284.458
280.3
276.143
271.986
267.829
263.672
259.516
255.359
251.203
247.047
242.891
238.735
234.579
230.423
226.267
222.111
217.955
213.799
209.643
205.487
201.331
197.175
193.02
188.864
184.708
180.552
176.396
172.24
168.084
163.928
159.773
155.617
151.461
147.305
143.149
138.993
134.837
130.681
126.525
122.37
118.214
114.058
109.902
105.746
101.59
97.4341
93.2782
89.1223
84.9664
80.8105
76.6547
72.4988
68.343
64.1873
60.0316
55.876
51.7206
47.5655
43.4107
39.2565
35.1031
30.9509
26.8005
22.6528
18.5085
14.3691
10.2326
6.10829
1.98642
421.732
414.239
409.931
404.503
399.797
394.981
390.377
385.824
381.364
376.956
372.6
368.281
363.994
359.732
355.491
351.266
347.054
342.854
338.661
334.476
330.297
326.122
321.95
317.782
313.616
309.452
305.29
301.129
296.968
292.809
288.651
284.492
280.335
276.177
272.02
267.864
263.707
259.55
255.394
251.238
247.082
242.925
238.769
234.613
230.457
226.301
222.145
217.99
213.834
209.678
205.522
201.366
197.21
193.054
188.898
184.742
180.587
176.431
172.275
168.119
163.963
159.807
155.651
151.495
147.34
143.184
139.028
134.872
130.716
126.56
122.404
118.248
114.092
109.936
105.781
101.625
97.4688
93.3129
89.157
85.0011
80.8452
76.6894
72.5335
68.3777
64.222
60.0663
55.9107
51.7553
47.6001
43.4454
39.2911
35.1377
30.9855
26.8351
22.6874
18.5432
14.4038
10.268
6.14206
2.01583
421.526
414.291
409.986
404.546
399.834
395.014
390.411
385.857
381.397
376.989
372.633
368.314
364.027
359.765
355.524
351.299
347.087
342.886
338.694
334.509
330.329
326.154
321.983
317.814
313.649
309.485
305.322
301.161
297.001
292.841
288.683
284.525
280.367
276.21
272.053
267.896
263.739
259.583
255.426
251.27
247.114
242.958
238.802
234.646
230.49
226.334
222.178
218.022
213.866
209.71
205.554
201.398
197.242
193.087
188.931
184.775
180.619
176.463
172.307
168.151
163.995
159.84
155.684
151.528
147.372
143.216
139.06
134.904
130.748
126.592
122.437
118.281
114.125
109.969
105.813
101.657
97.5011
93.3452
89.1893
85.0334
80.8775
76.7217
72.5658
68.41
64.2543
60.0986
55.943
51.7876
47.6324
43.4776
39.3234
35.17
31.0178
26.8674
22.7196
18.5755
14.4362
10.301
6.17352
2.04307
421.346
414.332
410.036
404.586
399.867
395.045
390.442
385.888
381.428
377.02
372.663
368.344
364.057
359.795
355.554
351.328
347.117
342.916
338.724
334.538
330.359
326.184
322.012
317.844
313.678
309.514
305.352
301.191
297.03
292.871
288.712
284.554
280.397
276.239
272.082
267.925
263.769
259.612
255.456
251.3
247.144
242.987
238.831
234.675
230.519
226.363
222.207
218.052
213.896
209.74
205.584
201.428
197.272
193.116
188.96
184.804
180.649
176.493
172.337
168.181
164.025
159.869
155.713
151.557
147.402
143.246
139.09
134.934
130.778
126.622
122.466
118.31
114.154
109.998
105.843
101.687
97.5307
93.3748
89.2189
85.0631
80.9072
76.7513
72.5955
68.4397
64.2839
60.1282
55.9727
51.8172
47.6621
43.5073
39.353
35.1996
31.0474
26.897
22.7493
18.6052
14.4659
10.3315
6.20246
2.06801
421.189
414.366
410.081
404.623
399.898
395.072
390.47
385.916
381.456
377.047
372.691
368.372
364.084
359.822
355.581
351.356
347.144
342.943
338.751
334.565
330.386
326.211
322.04
317.871
313.705
309.541
305.379
301.218
297.057
292.898
288.739
284.581
280.424
276.266
272.109
267.952
263.796
259.639
255.483
251.327
247.171
243.014
238.858
234.702
230.546
226.39
222.234
218.078
213.923
209.767
205.611
201.455
197.299
193.143
188.987
184.831
180.676
176.52
172.364
168.208
164.052
159.896
155.74
151.584
147.429
143.273
139.117
134.961
130.805
126.649
122.493
118.337
114.181
110.025
105.87
101.714
97.5577
93.4018
89.2459
85.09
80.9342
76.7783
72.6225
68.4667
64.3109
60.1552
55.9996
51.8442
47.6891
43.5343
39.38
35.2266
31.0744
26.924
22.7762
18.6322
14.493
10.3593
6.2288
2.09061
421.053
414.392
410.121
404.657
399.925
395.097
390.495
385.94
381.481
377.072
372.716
368.396
364.109
359.847
355.605
351.38
347.168
342.967
338.775
334.59
330.41
326.235
322.064
317.895
313.73
309.566
305.403
301.242
297.082
292.922
288.764
284.606
280.448
276.291
272.134
267.977
263.82
259.664
255.507
251.351
247.195
243.039
238.883
234.727
230.571
226.415
222.259
218.103
213.947
209.791
205.635
201.479
197.323
193.167
189.012
184.856
180.7
176.544
172.388
168.232
164.076
159.92
155.765
151.609
147.453
143.297
139.141
134.985
130.829
126.673
122.517
118.362
114.206
110.05
105.894
101.738
97.582
93.4261
89.2702
85.1143
80.9585
76.8026
72.6467
68.4909
64.3352
60.1795
56.0239
51.8685
47.7133
43.5585
39.4043
35.2509
31.0986
26.9483
22.8004
18.6565
14.5173
10.3845
6.25254
2.11088
420.936
414.413
410.156
404.687
399.949
395.119
390.517
385.962
381.503
377.094
372.738
368.418
364.131
359.869
355.627
351.402
347.19
342.989
338.797
334.611
330.432
326.257
322.085
317.917
313.751
309.587
305.425
301.264
297.103
292.944
288.785
284.627
280.47
276.312
272.155
267.998
263.842
259.685
255.529
251.373
247.216
243.06
238.904
234.748
230.592
226.436
222.28
218.124
213.968
209.813
205.657
201.501
197.345
193.189
189.033
184.877
180.721
176.566
172.41
168.254
164.098
159.942
155.786
151.63
147.474
143.319
139.163
135.007
130.851
126.695
122.539
118.383
114.227
110.071
105.915
101.759
97.6036
93.4477
89.2918
85.1359
80.98
76.8242
72.6683
68.5125
64.3568
60.2011
56.0455
51.8901
47.7349
43.5801
39.4259
35.2724
31.1202
26.9698
22.822
18.6782
14.539
10.4069
6.27366
2.12886
420.837
414.43
410.187
404.714
399.97
395.138
390.536
385.981
381.522
377.113
372.757
368.437
364.15
359.888
355.646
351.421
347.209
343.008
338.816
334.63
330.451
326.276
322.104
317.936
313.77
309.606
305.444
301.282
297.122
292.963
288.804
284.646
280.488
276.331
272.174
268.017
263.861
259.704
255.548
251.391
247.235
243.079
238.923
234.767
230.611
226.455
222.299
218.143
213.987
209.831
205.676
201.52
197.364
193.208
189.052
184.896
180.74
176.584
172.429
168.273
164.117
159.961
155.805
151.649
147.493
143.337
139.182
135.026
130.87
126.714
122.558
118.402
114.246
110.09
105.934
101.778
97.6225
93.4666
89.3107
85.1548
80.9989
76.8431
72.6872
68.5314
64.3757
60.22
56.0644
51.909
47.7538
43.599
39.4447
35.2913
31.1391
26.9887
22.8409
18.6971
14.558
10.4266
6.29216
2.14456
420.754
414.442
410.213
404.737
399.988
395.154
390.552
385.998
381.538
377.13
372.773
368.454
364.166
359.904
355.662
351.437
347.225
343.024
338.832
334.647
330.467
326.292
322.121
317.952
313.786
309.622
305.46
301.299
297.138
292.979
288.82
284.662
280.505
276.347
272.19
268.033
263.877
259.72
255.564
251.408
247.251
243.095
238.939
234.783
230.627
226.471
222.315
218.159
214.004
209.848
205.692
201.536
197.38
193.224
189.068
184.912
180.756
176.601
172.445
168.289
164.133
159.977
155.821
151.665
147.509
143.354
139.198
135.042
130.886
126.73
122.574
118.418
114.262
110.106
105.95
101.795
97.6387
93.4828
89.3269
85.171
81.0151
76.8593
72.7034
68.5476
64.3918
60.2362
56.0806
51.9252
47.77
43.6152
39.4609
35.3075
31.1553
27.0049
22.857
18.7133
14.5742
10.4435
6.30803
2.158
420.686
414.452
410.235
404.756
400.003
395.167
390.566
386.011
381.552
377.143
372.787
368.467
364.18
359.918
355.676
351.451
347.239
343.038
338.845
334.66
330.481
326.305
322.134
317.966
313.8
309.636
305.473
301.312
297.152
292.993
288.834
284.676
280.518
276.361
272.204
268.047
263.89
259.734
255.577
251.421
247.265
243.109
238.953
234.797
230.641
226.485
222.329
218.173
214.017
209.861
205.705
201.549
197.393
193.238
189.082
184.926
180.77
176.614
172.458
168.302
164.146
159.991
155.835
151.679
147.523
143.367
139.211
135.055
130.899
126.743
122.588
118.432
114.276
110.12
105.964
101.808
97.6522
93.4963
89.3404
85.1845
81.0286
76.8728
72.7169
68.5611
64.4053
60.2496
56.0941
51.9387
47.7835
43.6287
39.4744
35.321
31.1688
27.0184
22.8705
18.7268
14.5878
10.4576
6.32127
2.16918
420.632
414.459
410.252
404.772
400.015
395.178
390.577
386.022
381.563
377.154
372.798
368.478
364.191
359.929
355.687
351.462
347.25
343.049
338.856
334.671
330.491
326.316
322.145
317.977
313.811
309.647
305.484
301.323
297.163
293.003
288.845
284.687
280.529
276.372
272.215
268.058
263.901
259.745
255.588
251.432
247.276
243.12
238.964
234.808
230.652
226.496
222.34
218.184
214.028
209.872
205.716
201.56
197.404
193.248
189.093
184.937
180.781
176.625
172.469
168.313
164.157
160.001
155.846
151.69
147.534
143.378
139.222
135.066
130.91
126.754
122.598
118.442
114.287
110.131
105.975
101.819
97.663
93.5071
89.3512
85.1953
81.0394
76.8836
72.7277
68.5719
64.4161
60.2604
56.1049
51.9494
47.7943
43.6395
39.4852
35.3318
31.1795
27.0292
22.8813
18.7377
14.5986
10.469
6.33186
2.17812
420.593
414.464
410.265
404.784
400.024
395.186
390.585
386.03
381.571
377.162
372.806
368.486
364.199
359.937
355.695
351.47
347.258
343.057
338.864
334.679
330.499
326.324
322.153
317.985
313.819
309.655
305.492
301.331
297.171
293.012
288.853
284.695
280.537
276.38
272.223
268.066
263.909
259.753
255.596
251.44
247.284
243.128
238.972
234.816
230.66
226.504
222.348
218.192
214.036
209.88
205.724
201.568
197.412
193.256
189.101
184.945
180.789
176.633
172.477
168.321
164.165
160.01
155.854
151.698
147.542
143.386
139.23
135.074
130.918
126.762
122.606
118.451
114.295
110.139
105.983
101.827
97.6711
93.5152
89.3593
85.2034
81.0475
76.8916
72.7358
68.58
64.4242
60.2685
56.113
51.9575
47.8024
43.6476
39.4933
35.3399
31.1876
27.0373
22.8894
18.7458
14.6067
10.4775
6.33981
2.18482
420.567
414.467
410.274
404.791
400.03
395.191
390.59
386.036
381.577
377.168
372.811
368.492
364.204
359.942
355.7
351.475
347.263
343.062
338.87
334.684
330.505
326.33
322.158
317.99
313.824
309.66
305.498
301.336
297.176
293.017
288.858
284.7
280.542
276.385
272.228
268.071
263.915
259.758
255.602
251.445
247.289
243.133
238.977
234.821
230.665
226.509
222.353
218.197
214.041
209.885
205.73
201.574
197.418
193.262
189.106
184.95
180.794
176.638
172.483
168.327
164.171
160.015
155.859
151.703
147.547
143.391
139.235
135.08
130.924
126.768
122.612
118.456
114.3
110.144
105.988
101.832
97.6765
93.5206
89.3647
85.2088
81.0529
76.897
72.7412
68.5854
64.4296
60.2739
56.1184
51.9629
47.8078
43.653
39.4987
35.3453
31.193
27.0426
22.8947
18.7512
14.6121
10.4832
6.34512
2.18928
420.554
414.469
410.278
404.795
400.033
395.194
390.593
386.038
381.579
377.171
372.814
368.495
364.207
359.945
355.703
351.478
347.266
343.065
338.873
334.687
330.508
326.333
322.161
317.993
313.827
309.663
305.5
301.339
297.179
293.02
288.861
284.703
280.545
276.388
272.231
268.074
263.917
259.761
255.604
251.448
247.292
243.136
238.98
234.824
230.668
226.512
222.356
218.2
214.044
209.888
205.732
201.576
197.42
193.265
189.109
184.953
180.797
176.641
172.485
168.329
164.173
160.018
155.862
151.706
147.55
143.394
139.238
135.082
130.926
126.77
122.615
118.459
114.303
110.147
105.991
101.835
97.6792
93.5233
89.3674
85.2115
81.0556
76.8997
72.7439
68.5881
64.4323
60.2766
56.121
51.9656
47.8105
43.6557
39.5014
35.348
31.1957
27.0453
22.8974
18.7539
14.6148
10.486
6.34777
2.19151
420.554
414.469
410.278
404.795
400.033
395.194
390.593
386.038
381.579
377.171
372.814
368.495
364.207
359.945
355.703
351.478
347.266
343.065
338.873
334.687
330.508
326.333
322.161
317.993
313.827
309.663
305.5
301.339
297.179
293.02
288.861
284.703
280.545
276.388
272.231
268.074
263.917
259.761
255.604
251.448
247.292
243.136
238.98
234.824
230.668
226.512
222.356
218.2
214.044
209.888
205.732
201.576
197.42
193.265
189.109
184.953
180.797
176.641
172.485
168.329
164.173
160.018
155.862
151.706
147.55
143.394
139.238
135.082
130.926
126.77
122.615
118.459
114.303
110.147
105.991
101.835
97.6792
93.5233
89.3674
85.2115
81.0556
76.8997
72.7439
68.5881
64.4323
60.2766
56.121
51.9656
47.8105
43.6557
39.5014
35.348
31.1957
27.0453
22.8974
18.7539
14.6148
10.486
6.34777
2.19151
420.567
414.467
410.274
404.791
400.03
395.191
390.59
386.036
381.577
377.168
372.811
368.492
364.204
359.942
355.7
351.475
347.263
343.062
338.87
334.685
330.505
326.33
322.158
317.99
313.824
309.66
305.498
301.336
297.176
293.017
288.858
284.7
280.542
276.385
272.228
268.071
263.915
259.758
255.602
251.445
247.289
243.133
238.977
234.821
230.665
226.509
222.353
218.197
214.041
209.885
205.73
201.574
197.418
193.262
189.106
184.95
180.794
176.638
172.483
168.327
164.171
160.015
155.859
151.703
147.547
143.391
139.235
135.08
130.924
126.768
122.612
118.456
114.3
110.144
105.988
101.832
97.6765
93.5206
89.3647
85.2088
81.0529
76.897
72.7412
68.5854
64.4296
60.2739
56.1184
51.9629
47.8078
43.653
39.4987
35.3453
31.193
27.0426
22.8947
18.7512
14.6121
10.4832
6.34512
2.18928
420.593
414.464
410.265
404.784
400.024
395.186
390.585
386.03
381.571
377.162
372.806
368.486
364.199
359.937
355.695
351.47
347.258
343.057
338.864
334.679
330.499
326.324
322.153
317.985
313.819
309.655
305.492
301.331
297.171
293.012
288.853
284.695
280.537
276.38
272.223
268.066
263.909
259.753
255.596
251.44
247.284
243.128
238.972
234.816
230.66
226.504
222.348
218.192
214.036
209.88
205.724
201.568
197.412
193.256
189.101
184.945
180.789
176.633
172.477
168.321
164.165
160.01
155.854
151.698
147.542
143.386
139.23
135.074
130.918
126.762
122.606
118.451
114.295
110.139
105.983
101.827
97.6711
93.5152
89.3593
85.2034
81.0475
76.8917
72.7358
68.58
64.4242
60.2685
56.113
51.9575
47.8024
43.6476
39.4933
35.3399
31.1876
27.0373
22.8894
18.7458
14.6067
10.4775
6.33982
2.18482
420.632
414.459
410.252
404.772
400.015
395.178
390.577
386.022
381.563
377.154
372.798
368.478
364.191
359.929
355.687
351.462
347.25
343.049
338.856
334.671
330.491
326.316
322.145
317.977
313.811
309.647
305.484
301.323
297.163
293.003
288.845
284.687
280.529
276.372
272.215
268.058
263.901
259.745
255.588
251.432
247.276
243.12
238.964
234.808
230.652
226.496
222.34
218.184
214.028
209.872
205.716
201.56
197.404
193.248
189.093
184.937
180.781
176.625
172.469
168.313
164.157
160.001
155.846
151.69
147.534
143.378
139.222
135.066
130.91
126.754
122.598
118.442
114.287
110.131
105.975
101.819
97.663
93.5071
89.3512
85.1953
81.0394
76.8836
72.7277
68.5719
64.4161
60.2604
56.1049
51.9494
47.7943
43.6395
39.4852
35.3318
31.1795
27.0292
22.8813
18.7377
14.5986
10.469
6.33186
2.17812
420.686
414.452
410.235
404.756
400.003
395.167
390.566
386.011
381.552
377.143
372.787
368.467
364.18
359.918
355.676
351.451
347.239
343.038
338.845
334.66
330.481
326.305
322.134
317.966
313.8
309.636
305.473
301.312
297.152
292.993
288.834
284.676
280.518
276.361
272.204
268.047
263.89
259.734
255.577
251.421
247.265
243.109
238.953
234.797
230.641
226.485
222.329
218.173
214.017
209.861
205.705
201.549
197.393
193.238
189.082
184.926
180.77
176.614
172.458
168.302
164.146
159.991
155.835
151.679
147.523
143.367
139.211
135.055
130.899
126.743
122.588
118.432
114.276
110.12
105.964
101.808
97.6522
93.4963
89.3404
85.1845
81.0286
76.8728
72.7169
68.5611
64.4053
60.2496
56.0941
51.9387
47.7835
43.6287
39.4744
35.321
31.1688
27.0184
22.8705
18.7269
14.5878
10.4577
6.32127
2.16918
420.754
414.442
410.213
404.737
399.988
395.154
390.552
385.998
381.538
377.13
372.773
368.454
364.166
359.904
355.662
351.437
347.225
343.024
338.832
334.647
330.467
326.292
322.121
317.952
313.786
309.622
305.46
301.299
297.138
292.979
288.82
284.662
280.505
276.347
272.19
268.033
263.877
259.72
255.564
251.408
247.251
243.095
238.939
234.783
230.627
226.471
222.315
218.159
214.004
209.848
205.692
201.536
197.38
193.224
189.068
184.912
180.756
176.601
172.445
168.289
164.133
159.977
155.821
151.665
147.509
143.354
139.198
135.042
130.886
126.73
122.574
118.418
114.262
110.106
105.95
101.795
97.6387
93.4828
89.3269
85.171
81.0151
76.8593
72.7034
68.5476
64.3918
60.2362
56.0806
51.9252
47.77
43.6152
39.4609
35.3075
31.1553
27.0049
22.857
18.7133
14.5742
10.4435
6.30803
2.158
420.837
414.43
410.187
404.714
399.97
395.138
390.536
385.981
381.522
377.113
372.757
368.437
364.15
359.888
355.646
351.421
347.209
343.008
338.816
334.63
330.451
326.276
322.104
317.936
313.77
309.606
305.444
301.282
297.122
292.963
288.804
284.646
280.488
276.331
272.174
268.017
263.861
259.704
255.548
251.391
247.235
243.079
238.923
234.767
230.611
226.455
222.299
218.143
213.987
209.831
205.676
201.52
197.364
193.208
189.052
184.896
180.74
176.584
172.429
168.273
164.117
159.961
155.805
151.649
147.493
143.337
139.182
135.026
130.87
126.714
122.558
118.402
114.246
110.09
105.934
101.778
97.6225
93.4666
89.3107
85.1548
80.9989
76.8431
72.6872
68.5314
64.3757
60.22
56.0644
51.909
47.7538
43.599
39.4448
35.2913
31.1391
26.9887
22.8409
18.6971
14.558
10.4266
6.29216
2.14456
420.936
414.413
410.157
404.687
399.949
395.119
390.517
385.962
381.503
377.094
372.738
368.418
364.131
359.869
355.627
351.402
347.19
342.989
338.797
334.611
330.432
326.257
322.085
317.917
313.751
309.587
305.425
301.264
297.103
292.944
288.785
284.627
280.47
276.312
272.155
267.998
263.842
259.685
255.529
251.373
247.216
243.06
238.904
234.748
230.592
226.436
222.28
218.124
213.968
209.813
205.657
201.501
197.345
193.189
189.033
184.877
180.721
176.566
172.41
168.254
164.098
159.942
155.786
151.63
147.474
143.319
139.163
135.007
130.851
126.695
122.539
118.383
114.227
110.071
105.915
101.76
97.6036
93.4477
89.2918
85.1359
80.9801
76.8242
72.6683
68.5125
64.3568
60.2011
56.0455
51.8901
47.7349
43.5801
39.4259
35.2724
31.1202
26.9698
22.822
18.6782
14.539
10.4069
6.27366
2.12886
421.053
414.392
410.121
404.657
399.925
395.097
390.495
385.94
381.481
377.072
372.716
368.396
364.109
359.847
355.605
351.38
347.168
342.967
338.775
334.59
330.41
326.235
322.064
317.895
313.73
309.566
305.403
301.242
297.082
292.922
288.764
284.606
280.448
276.291
272.134
267.977
263.82
259.664
255.507
251.351
247.195
243.039
238.883
234.727
230.571
226.415
222.259
218.103
213.947
209.791
205.635
201.479
197.323
193.167
189.012
184.856
180.7
176.544
172.388
168.232
164.076
159.92
155.765
151.609
147.453
143.297
139.141
134.985
130.829
126.673
122.517
118.362
114.206
110.05
105.894
101.738
97.582
93.4261
89.2702
85.1143
80.9585
76.8026
72.6468
68.4909
64.3352
60.1795
56.0239
51.8685
47.7133
43.5585
39.4043
35.2509
31.0987
26.9483
22.8005
18.6565
14.5174
10.3845
6.25254
2.11088
421.189
414.366
410.081
404.623
399.898
395.072
390.47
385.916
381.456
377.047
372.691
368.372
364.084
359.822
355.581
351.356
347.144
342.943
338.751
334.565
330.386
326.211
322.04
317.871
313.705
309.541
305.379
301.218
297.057
292.898
288.739
284.581
280.424
276.266
272.109
267.952
263.796
259.639
255.483
251.327
247.171
243.014
238.858
234.702
230.546
226.39
222.234
218.078
213.923
209.767
205.611
201.455
197.299
193.143
188.987
184.831
180.676
176.52
172.364
168.208
164.052
159.896
155.74
151.584
147.429
143.273
139.117
134.961
130.805
126.649
122.493
118.337
114.181
110.025
105.87
101.714
97.5577
93.4018
89.2459
85.0901
80.9342
76.7783
72.6225
68.4667
64.3109
60.1552
55.9996
51.8442
47.6891
43.5343
39.38
35.2266
31.0744
26.924
22.7762
18.6322
14.493
10.3593
6.22881
2.09061
421.346
414.332
410.036
404.586
399.867
395.045
390.442
385.888
381.428
377.02
372.663
368.344
364.057
359.795
355.554
351.329
347.117
342.916
338.724
334.538
330.359
326.184
322.012
317.844
313.678
309.514
305.352
301.191
297.03
292.871
288.712
284.554
280.397
276.239
272.082
267.926
263.769
259.612
255.456
251.3
247.144
242.987
238.831
234.675
230.519
226.363
222.207
218.052
213.896
209.74
205.584
201.428
197.272
193.116
188.96
184.804
180.649
176.493
172.337
168.181
164.025
159.869
155.713
151.557
147.402
143.246
139.09
134.934
130.778
126.622
122.466
118.31
114.154
109.998
105.843
101.687
97.5308
93.3749
89.219
85.0631
80.9072
76.7513
72.5955
68.4397
64.2839
60.1282
55.9727
51.8173
47.6621
43.5073
39.3531
35.1996
31.0474
26.8971
22.7493
18.6052
14.466
10.3315
6.20246
2.06801
421.526
414.291
409.986
404.546
399.834
395.014
390.411
385.857
381.397
376.989
372.633
368.314
364.027
359.765
355.524
351.299
347.087
342.886
338.694
334.509
330.329
326.154
321.983
317.814
313.648
309.485
305.322
301.161
297.001
292.841
288.683
284.525
280.367
276.21
272.053
267.896
263.739
259.583
255.426
251.27
247.114
242.958
238.802
234.646
230.49
226.334
222.178
218.022
213.866
209.71
205.554
201.398
197.242
193.087
188.931
184.775
180.619
176.463
172.307
168.151
163.995
159.84
155.684
151.528
147.372
143.216
139.06
134.904
130.748
126.592
122.437
118.281
114.125
109.969
105.813
101.657
97.5011
93.3452
89.1893
85.0334
80.8775
76.7217
72.5658
68.41
64.2543
60.0986
55.943
51.7876
47.6324
43.4776
39.3234
35.17
31.0178
26.8674
22.7197
18.5755
14.4362
10.301
6.17353
2.04308
421.732
414.239
409.931
404.503
399.797
394.981
390.377
385.824
381.364
376.956
372.6
368.281
363.994
359.732
355.491
351.266
347.054
342.854
338.661
334.476
330.297
326.122
321.95
317.782
313.616
309.452
305.29
301.129
296.968
292.809
288.651
284.492
280.335
276.177
272.02
267.864
263.707
259.55
255.394
251.238
247.082
242.925
238.769
234.613
230.457
226.301
222.145
217.99
213.834
209.678
205.522
201.366
197.21
193.054
188.898
184.742
180.587
176.431
172.275
168.119
163.963
159.807
155.651
151.495
147.34
143.184
139.028
134.872
130.716
126.56
122.404
118.248
114.092
109.937
105.781
101.625
97.4688
93.3129
89.157
85.0011
80.8452
76.6894
72.5335
68.3777
64.222
60.0663
55.9107
51.7553
47.6001
43.4454
39.2911
35.1377
30.9855
26.8352
22.6874
18.5432
14.4039
10.268
6.14207
2.01583
421.967
414.176
409.872
404.457
399.757
394.944
390.341
385.788
381.328
376.921
372.564
368.246
363.959
359.697
355.456
351.231
347.019
342.819
338.627
334.441
330.262
326.087
321.916
317.747
313.581
309.417
305.255
301.094
296.934
292.774
288.616
284.458
280.3
276.143
271.986
267.829
263.672
259.516
255.359
251.203
247.047
242.891
238.735
234.579
230.423
226.267
222.111
217.955
213.799
209.643
205.487
201.331
197.175
193.02
188.864
184.708
180.552
176.396
172.24
168.084
163.928
159.773
155.617
151.461
147.305
143.149
138.993
134.837
130.681
126.525
122.37
118.214
114.058
109.902
105.746
101.59
97.4341
93.2782
89.1223
84.9664
80.8106
76.6547
72.4989
68.343
64.1873
60.0316
55.876
51.7206
47.5655
43.4107
39.2565
35.1031
30.9509
26.8005
22.6528
18.5085
14.3691
10.2326
6.1083
1.98642
422.239
414.098
409.808
404.409
399.715
394.906
390.302
385.75
381.29
376.883
372.527
368.208
363.922
359.66
355.419
351.194
346.982
342.782
338.59
334.405
330.225
326.05
321.879
317.711
313.545
309.381
305.218
301.057
296.897
292.738
288.579
284.421
280.263
276.106
271.949
267.792
263.636
259.479
255.323
251.166
247.01
242.854
238.698
234.542
230.386
226.23
222.074
217.918
213.762
209.606
205.45
201.295
197.139
192.983
188.827
184.671
180.515
176.359
172.204
168.048
163.892
159.736
155.58
151.424
147.268
143.112
138.956
134.801
130.645
126.489
122.333
118.177
114.021
109.865
105.709
101.553
97.3975
93.2416
89.0857
84.9298
80.7739
76.618
72.4622
68.3064
64.1506
59.995
55.8394
51.684
47.5288
43.3741
39.2198
35.0664
30.9143
26.7639
22.6162
18.4719
14.3324
10.1953
6.07246
1.95501
422.544
414.003
409.742
404.359
399.67
394.865
390.261
385.709
381.25
376.843
372.487
368.169
363.882
359.621
355.38
351.155
346.944
342.743
338.551
334.366
330.187
326.012
321.84
317.672
313.506
309.342
305.18
301.019
296.859
292.699
288.541
284.383
280.225
276.068
271.911
267.754
263.597
259.441
255.284
251.128
246.972
242.816
238.66
234.504
230.348
226.192
222.036
217.88
213.724
209.568
205.412
201.256
197.1
192.945
188.789
184.633
180.477
176.321
172.165
168.009
163.853
159.698
155.542
151.386
147.23
143.074
138.918
134.762
130.606
126.45
122.295
118.139
113.983
109.827
105.671
101.515
97.3591
93.2032
89.0473
84.8914
80.7355
76.5797
72.4238
68.268
64.1123
59.9566
55.801
51.6456
47.4905
43.3357
39.1815
35.0281
30.876
26.7256
22.5779
18.4336
14.294
10.1566
6.03475
1.92175
422.883
413.892
409.677
404.313
399.626
394.826
390.221
385.671
381.211
376.805
372.45
368.132
363.845
359.584
355.343
351.118
346.907
342.706
338.514
334.329
330.15
325.975
321.804
317.636
313.47
309.306
305.143
300.982
296.822
292.663
288.504
284.346
280.189
276.031
271.874
267.717
263.561
259.404
255.248
251.092
246.936
242.779
238.623
234.467
230.311
226.155
221.999
217.843
213.688
209.532
205.376
201.22
197.064
192.908
188.752
184.596
180.44
176.285
172.129
167.973
163.817
159.661
155.505
151.349
147.193
143.038
138.882
134.726
130.57
126.414
122.258
118.102
113.946
109.79
105.634
101.479
97.3227
93.1668
89.0109
84.855
80.6991
76.5433
72.3874
68.2316
64.0759
59.9202
55.7646
51.6092
47.4541
43.2993
39.1451
34.9917
30.8396
26.6893
22.5416
18.3972
14.2576
10.1203
5.99938
1.89071
423.401
413.8
409.641
404.296
399.609
394.813
390.209
385.66
381.2
376.794
372.439
368.122
363.836
359.575
355.334
351.109
346.898
342.698