/*--------------------------------*- C++ -*----------------------------------*\
  =========                 |
  \\      /  F ield         | OpenFOAM: The Open Source CFD Toolbox
   \\    /   O peration     | Website:  https://openfoam.org
    \\  /    A nd           | Version:  7
     \\/     M anipulation  |
\*---------------------------------------------------------------------------*/
FoamFile
{
    version     2.0;
    format      ascii;
    class       volScalarField;
    location    "2.5";
    object      pB;
}
// * * * * * * * * * * * * * * * * * * * * * * * * * * * * * * * * * * * * * //

dimensions      [1 1 -3 0 0 -1 0];

internalField   nonuniform List<scalar> 
4000
(
28.4562
65.4249
85.6381
93.0685
92.8801
87.6989
79.9758
71.1218
62.1086
53.4745
45.5281
38.4069
32.15
26.733
22.0973
18.1666
14.8586
12.0917
9.78911
7.88125
6.3062
5.00985
3.94572
3.07424
2.36187
1.78056
1.30695
0.92154
0.608254
0.353902
0.147546
-0.0197379
-0.155236
-0.264908
-0.353648
-0.425392
-0.483365
-0.530193
-0.568
-0.598494
-0.623104
-0.642932
-0.65891
-0.671776
-0.68214
-0.690465
-0.69717
-0.702548
-0.706878
-0.71034
-0.713128
-0.715354
-0.717143
-0.718569
-0.719715
-0.72062
-0.721351
-0.721924
-0.72238
-0.722735
-0.723015
-0.723222
-0.72338
-0.723482
-0.723547
-0.723561
-0.72354
-0.723467
-0.723346
-0.72316
-0.722903
-0.722543
-0.722065
-0.721415
-0.720551
-0.719392
-0.717853
-0.715799
-0.713074
-0.709459
-0.704685
-0.69839
-0.690134
-0.679346
-0.665342
-0.647277
-0.624181
-0.594953
-0.558463
-0.513677
-0.45997
-0.397591
-0.328524
-0.257735
-0.195136
-0.157496
-0.168226
-0.24647
-0.364249
-0.362199
30.6097
65.4409
84.9003
92.2589
92.0991
87.014
79.3858
70.6232
61.6904
53.1274
45.2428
38.1748
31.9634
26.5849
21.9818
18.0782
14.7928
12.0446
9.75754
7.86239
6.29775
5.00991
3.9527
3.08686
2.37906
1.80146
1.33084
0.947856
0.636519
0.383739
0.178649
0.0123838
-0.1223
-0.231315
-0.319531
-0.390853
-0.448491
-0.495048
-0.532641
-0.562961
-0.587435
-0.607154
-0.623045
-0.63584
-0.64615
-0.65443
-0.661101
-0.666451
-0.670759
-0.674204
-0.676978
-0.679193
-0.680974
-0.682392
-0.683535
-0.684433
-0.685163
-0.685731
-0.686186
-0.686538
-0.686818
-0.687022
-0.687181
-0.687281
-0.687348
-0.68736
-0.687341
-0.687266
-0.687147
-0.686961
-0.686706
-0.686347
-0.685872
-0.685224
-0.684367
-0.683213
-0.681683
-0.679639
-0.67693
-0.673334
-0.668588
-0.662328
-0.654122
-0.643398
-0.62948
-0.611528
-0.588584
-0.559555
-0.523329
-0.478888
-0.425629
-0.363813
-0.295424
-0.225351
-0.163235
-0.125038
-0.132189
-0.199628
-0.296918
-0.289063
31.924
65.3093
83.8371
91.0181
90.8594
85.89
78.3956
69.7709
60.9657
52.5191
44.7377
37.7604
31.6273
26.316
21.7698
17.9143
14.669
11.9543
9.69497
7.82269
6.27684
5.00442
3.9598
3.10422
2.40478
1.83395
1.36882
0.990287
0.682543
0.432663
0.229914
0.0655358
-0.0676342
-0.17543
-0.262667
-0.333203
-0.390211
-0.436261
-0.473453
-0.503447
-0.527663
-0.547175
-0.562902
-0.575563
-0.585769
-0.593965
-0.60057
-0.605866
-0.610132
-0.613543
-0.616292
-0.618484
-0.62025
-0.621652
-0.622786
-0.623675
-0.624399
-0.624961
-0.625413
-0.62576
-0.626039
-0.62624
-0.626398
-0.626496
-0.626563
-0.626574
-0.626556
-0.626481
-0.626365
-0.626179
-0.625928
-0.625571
-0.625102
-0.62446
-0.623613
-0.62247
-0.620958
-0.618935
-0.616257
-0.612699
-0.608006
-0.601816
-0.593703
-0.583102
-0.569347
-0.551607
-0.52894
-0.500271
-0.464511
-0.420665
-0.368153
-0.307245
-0.239885
-0.170789
-0.109102
-0.0694647
-0.0705383
-0.122144
-0.194181
-0.178326
32.0193
64.6753
82.287
89.2096
89.0366
84.2092
76.8967
68.4653
59.8442
51.5676
43.9386
37.0956
31.0794
25.8685
21.4078
17.6245
14.4398
11.7756
9.5581
7.72043
6.20308
4.95403
3.92853
3.08856
2.40182
1.84132
1.38457
1.01282
0.710572
0.465131
0.265966
0.104481
-0.026362
-0.132284
-0.218015
-0.287339
-0.343377
-0.388646
-0.425215
-0.454707
-0.478521
-0.497712
-0.513184
-0.525639
-0.535681
-0.543746
-0.550248
-0.55546
-0.559661
-0.563018
-0.565726
-0.567884
-0.569624
-0.571005
-0.572123
-0.572998
-0.573711
-0.574264
-0.57471
-0.575051
-0.575327
-0.575523
-0.57568
-0.575775
-0.575842
-0.575852
-0.575835
-0.57576
-0.575647
-0.575463
-0.575217
-0.574865
-0.574405
-0.573772
-0.57294
-0.571815
-0.570329
-0.56834
-0.565709
-0.562212
-0.557602
-0.55152
-0.543551
-0.533139
-0.519632
-0.502216
-0.479971
-0.451845
-0.416782
-0.373816
-0.322395
-0.262786
-0.196855
-0.12904
-0.0677397
-0.0257881
-0.0183711
-0.049734
-0.0924863
-0.0644083
31.2136
63.4157
80.2203
86.8439
86.6508
81.9887
74.9023
66.7166
58.3337
50.2788
42.8499
36.1841
30.3222
25.2443
20.8969
17.2095
14.1052
11.5081
9.34643
7.55486
6.07548
4.85761
3.85764
3.03851
2.36877
1.82209
1.37655
1.01391
0.71903
0.479547
0.285198
0.127602
-0.000109323
-0.103508
-0.187208
-0.254897
-0.309623
-0.353837
-0.38956
-0.418374
-0.441643
-0.460398
-0.475524
-0.487697
-0.497517
-0.505404
-0.511763
-0.516861
-0.520971
-0.524256
-0.526908
-0.529019
-0.530723
-0.532073
-0.533169
-0.534025
-0.534724
-0.535265
-0.535703
-0.536035
-0.536306
-0.536497
-0.53665
-0.536742
-0.536808
-0.536818
-0.536801
-0.536727
-0.536617
-0.536437
-0.536197
-0.535852
-0.535402
-0.534784
-0.533971
-0.532872
-0.531422
-0.529479
-0.526911
-0.523497
-0.518998
-0.513062
-0.505287
-0.495129
-0.481956
-0.464973
-0.443289
-0.415884
-0.38174
-0.339928
-0.289922
-0.231977
-0.167842
-0.101578
-0.0406419
0.00429085
0.0218616
0.0131908
0.00149709
0.0413666
29.8717
61.5397
77.6318
83.943
83.7322
79.257
72.4376
64.5468
56.4537
48.6703
41.4875
35.0403
29.3692
24.4558
20.2488
16.6801
13.6756
11.1619
9.06941
7.33512
5.90293
4.72385
3.75565
2.96248
2.31391
1.78447
1.35293
1.00165
0.715979
0.483947
0.295621
0.142891
0.019106
-0.0811273
-0.162279
-0.227915
-0.28099
-0.323876
-0.358534
-0.386493
-0.409074
-0.427278
-0.441964
-0.453783
-0.46332
-0.47098
-0.477159
-0.482112
-0.486107
-0.489299
-0.491878
-0.49393
-0.495587
-0.4969
-0.497966
-0.498799
-0.499479
-0.500004
-0.500431
-0.500752
-0.501016
-0.501201
-0.50135
-0.501439
-0.501503
-0.501511
-0.501496
-0.501423
-0.501317
-0.501141
-0.500908
-0.500572
-0.500136
-0.499535
-0.498747
-0.497681
-0.496274
-0.49439
-0.491901
-0.488591
-0.484231
-0.478478
-0.470946
-0.461106
-0.448349
-0.431906
-0.410918
-0.384406
-0.351394
-0.310996
-0.262713
-0.206773
-0.144775
-0.0803259
-0.0198011
0.0284832
0.0570607
0.0718864
0.0911986
0.138627
28.2157
59.103
74.5304
80.5282
80.307
76.0402
69.5258
61.9758
54.2214
46.757
39.8645
33.6754
28.2302
23.5117
19.4711
16.0433
13.1572
10.7424
8.73217
7.06594
5.68987
4.55691
3.62653
2.86427
2.24092
1.73203
1.31719
0.979468
0.704797
0.481666
0.300541
0.153633
0.0345477
-0.0618929
-0.139987
-0.203159
-0.254252
-0.295541
-0.328915
-0.355845
-0.377597
-0.395135
-0.409289
-0.420679
-0.429873
-0.43726
-0.443218
-0.447996
-0.451851
-0.45493
-0.45742
-0.4594
-0.461
-0.462268
-0.463297
-0.464101
-0.464757
-0.465264
-0.465676
-0.465985
-0.46624
-0.466418
-0.466561
-0.466646
-0.466707
-0.466715
-0.4667
-0.466629
-0.466526
-0.466356
-0.466132
-0.465808
-0.465386
-0.464807
-0.464048
-0.463021
-0.461667
-0.459854
-0.457459
-0.454274
-0.45008
-0.444547
-0.437304
-0.427844
-0.415582
-0.399782
-0.379623
-0.354169
-0.322494
-0.283758
-0.237485
-0.183871
-0.124336
-0.0619741
-0.00200399
0.0496745
0.0893399
0.127119
0.175613
0.225172
26.3728
56.1761
70.9372
76.6222
76.4005
72.363
66.1888
59.0228
51.6531
44.5526
37.9923
32.0993
26.9133
22.4188
18.5695
15.3037
12.5539
10.253
8.33746
6.74962
5.43822
4.35843
3.47165
2.74505
2.15082
1.66565
1.27011
0.948061
0.686108
0.473278
0.300493
0.160331
0.0466966
-0.0453426
-0.119885
-0.180194
-0.228979
-0.268409
-0.300287
-0.326015
-0.346797
-0.363557
-0.377086
-0.387975
-0.396767
-0.403832
-0.409532
-0.414103
-0.417793
-0.420741
-0.423124
-0.42502
-0.426552
-0.427766
-0.428752
-0.429522
-0.43015
-0.430635
-0.43103
-0.431324
-0.431568
-0.431738
-0.431874
-0.431955
-0.432012
-0.432019
-0.432004
-0.431936
-0.431837
-0.431673
-0.431459
-0.431148
-0.430745
-0.43019
-0.429465
-0.428484
-0.42719
-0.425459
-0.423173
-0.420134
-0.416132
-0.410853
-0.403945
-0.394924
-0.383234
-0.368176
-0.348971
-0.324734
-0.294592
-0.257751
-0.213762
-0.162776
-0.106016
-0.046037
0.0131256
0.0679161
0.118041
0.176999
0.251216
0.297932
24.4186
52.8316
66.8831
72.2515
72.0394
68.2516
62.4504
55.7083
48.7662
42.0721
35.8835
30.3224
25.4273
21.1843
17.55
14.4664
11.8698
9.69697
7.88796
6.38835
5.14974
4.12983
3.29215
2.60573
2.04432
1.58591
1.21214
0.907786
0.660196
0.459009
0.295655
0.163124
0.0556615
-0.0313911
-0.101906
-0.158966
-0.205131
-0.242448
-0.272623
-0.296981
-0.316659
-0.33253
-0.345347
-0.355663
-0.363994
-0.370691
-0.376095
-0.38043
-0.38393
-0.386725
-0.388987
-0.390786
-0.39224
-0.393392
-0.394327
-0.395058
-0.395653
-0.396113
-0.396488
-0.396766
-0.396996
-0.397156
-0.397285
-0.39736
-0.397413
-0.397418
-0.397404
-0.397338
-0.397244
-0.397088
-0.396884
-0.396588
-0.396205
-0.395679
-0.394992
-0.394062
-0.392838
-0.391199
-0.389036
-0.386162
-0.382378
-0.377386
-0.370856
-0.36233
-0.351286
-0.337064
-0.318933
-0.296063
-0.267636
-0.232911
-0.191459
-0.143387
-0.0897077
-0.0324348
0.0255486
0.0828511
0.142157
0.219418
0.31469
0.354789
22.3974
49.137
62.4058
67.4463
67.2528
63.7338
58.3358
52.0548
45.5801
39.3317
33.5519
28.3565
23.7821
19.8164
16.4194
13.5368
11.1094
9.07805
7.38674
5.98462
4.82646
3.87274
3.08937
2.44741
1.92232
1.49352
1.14386
0.859114
0.627447
0.439173
0.286285
0.162229
0.0616229
-0.0198864
-0.0859211
-0.139364
-0.18261
-0.217573
-0.245847
-0.268677
-0.287121
-0.301998
-0.314016
-0.323691
-0.331505
-0.337789
-0.342859
-0.346929
-0.350215
-0.35284
-0.354964
-0.356653
-0.358018
-0.3591
-0.359978
-0.360665
-0.361223
-0.361654
-0.362006
-0.362266
-0.36248
-0.36263
-0.362749
-0.362818
-0.362867
-0.36287
-0.362856
-0.362793
-0.362704
-0.362556
-0.362363
-0.362085
-0.361724
-0.36123
-0.360585
-0.359713
-0.358565
-0.357029
-0.355003
-0.352311
-0.348768
-0.344097
-0.337985
-0.330008
-0.319679
-0.30638
-0.289435
-0.268072
-0.24153
-0.209122
-0.170445
-0.125555
-0.0752568
-0.0210434
0.0352708
0.0941927
0.160841
0.252682
0.363625
0.394758
20.3346
45.1519
57.5468
62.2404
62.0718
58.8393
53.8722
48.086
42.1154
36.3492
31.0128
26.2141
21.9881
18.324
15.185
12.5211
10.2778
8.40037
6.83715
5.54117
4.47063
3.58899
2.8648
2.27128
1.78578
1.38928
1.06592
0.80257
0.588287
0.414118
0.272668
0.157879
0.0647736
-0.0106683
-0.0717964
-0.121275
-0.16132
-0.193699
-0.219888
-0.241037
-0.258125
-0.27191
-0.283049
-0.292017
-0.299261
-0.305088
-0.309791
-0.313566
-0.316617
-0.319051
-0.321023
-0.32259
-0.323857
-0.32486
-0.325675
-0.326312
-0.326829
-0.327227
-0.327555
-0.327793
-0.327991
-0.328128
-0.328237
-0.3283
-0.328343
-0.328345
-0.32833
-0.32827
-0.328186
-0.328047
-0.327867
-0.327608
-0.327272
-0.326812
-0.326212
-0.325403
-0.324339
-0.322916
-0.321039
-0.318547
-0.315268
-0.310945
-0.305292
-0.297914
-0.288362
-0.276071
-0.260415
-0.240685
-0.216184
-0.186281
-0.150596
-0.109139
-0.0625176
-0.0117454
0.0423061
0.101711
0.173428
0.275545
0.396476
0.417678
18.2443
40.927
52.3483
56.6695
56.5294
53.5992
49.0881
43.8276
38.3945
33.1439
28.2822
23.9091
20.057
16.7166
13.8547
11.4259
9.38036
7.66837
6.24286
5.06098
4.08466
3.28057
2.62003
2.07865
1.63576
1.27403
0.979009
0.73871
0.543166
0.384209
0.255098
0.150311
0.0653059
-0.00358078
-0.0594052
-0.104596
-0.141178
-0.170759
-0.194688
-0.214015
-0.229634
-0.242233
-0.252417
-0.260616
-0.267242
-0.272572
-0.276875
-0.280328
-0.28312
-0.285348
-0.287152
-0.288587
-0.289746
-0.290663
-0.291409
-0.29199
-0.292463
-0.292825
-0.293124
-0.293341
-0.29352
-0.293643
-0.293741
-0.293796
-0.293834
-0.293833
-0.293819
-0.293762
-0.293683
-0.293553
-0.293387
-0.293147
-0.292838
-0.292415
-0.291866
-0.291124
-0.290151
-0.288849
-0.287134
-0.284856
-0.281862
-0.277915
-0.272755
-0.266022
-0.257309
-0.246099
-0.231826
-0.213846
-0.19153
-0.164302
-0.131809
-0.0940202
-0.0513642
-0.0044358
0.0466787
0.105248
0.179458
0.287222
0.412478
0.423975
16.1345
36.5053
46.8527
50.7711
50.6603
48.0461
44.0134
39.3063
34.4409
29.7359
25.3775
21.4559
18.001
15.0046
12.4372
10.2581
8.42288
6.88684
5.60777
4.54727
3.67117
2.94959
2.3568
1.87092
1.4734
1.14871
0.883872
0.668141
0.492573
0.34984
0.233894
0.139782
0.0634267
0.0015429
-0.0486132
-0.0892198
-0.122095
-0.148682
-0.170191
-0.187566
-0.201609
-0.212936
-0.222096
-0.22947
-0.23543
-0.240226
-0.244098
-0.247206
-0.249719
-0.251724
-0.253348
-0.254638
-0.255681
-0.256506
-0.257176
-0.257698
-0.258122
-0.258445
-0.258713
-0.258905
-0.259064
-0.259173
-0.259259
-0.259306
-0.259338
-0.259334
-0.259319
-0.259265
-0.259192
-0.259072
-0.25892
-0.258702
-0.258422
-0.258039
-0.257542
-0.256872
-0.255995
-0.254823
-0.253281
-0.251233
-0.248542
-0.244996
-0.240362
-0.234315
-0.226493
-0.216433
-0.20363
-0.187507
-0.167503
-0.143104
-0.113986
-0.0800834
-0.0416713
0.000999919
0.0484513
0.104753
0.178718
0.287406
0.411583
0.414524
14.0098
31.923
41.1006
44.5835
44.5005
42.214
38.6795
34.5503
30.2791
26.1465
22.3169
18.8702
15.8331
13.1987
10.9413
9.02534
7.41156
6.06085
4.93606
4.00344
3.23296
2.59834
2.07696
1.6496
1.29993
1.01431
0.781321
0.59152
0.437041
0.311442
0.209404
0.126574
0.059364
0.00488704
-0.0392716
-0.075025
-0.103976
-0.12739
-0.146334
-0.161638
-0.174009
-0.183987
-0.192058
-0.198556
-0.203809
-0.208035
-0.211449
-0.214188
-0.216405
-0.218172
-0.219604
-0.22074
-0.221658
-0.222383
-0.222973
-0.223431
-0.223804
-0.224085
-0.224319
-0.224486
-0.224623
-0.224716
-0.224789
-0.224827
-0.224854
-0.224846
-0.22483
-0.224779
-0.224713
-0.224603
-0.224466
-0.224271
-0.224021
-0.223679
-0.223239
-0.222645
-0.221871
-0.220835
-0.219474
-0.217669
-0.215299
-0.212176
-0.208096
-0.202775
-0.195892
-0.187043
-0.175785
-0.161613
-0.144037
-0.122605
-0.0970253
-0.067208
-0.0333042
0.00469832
0.0477404
0.100301
0.171253
0.276249
0.394371
0.39055
11.8733
27.2106
35.1314
38.1457
38.087
36.1378
33.1185
29.5885
25.9348
22.398
19.1194
16.1679
13.5668
11.3103
9.37668
7.73539
6.35291
5.19576
4.23213
3.43311
2.77298
2.22924
1.7825
1.4163
1.11667
0.8719
0.672226
0.509552
0.377143
0.269481
0.182007
0.110994
0.0533659
0.00665289
-0.0312171
-0.0618799
-0.086712
-0.106796
-0.123046
-0.136174
-0.146789
-0.155348
-0.162274
-0.167849
-0.172358
-0.175984
-0.178915
-0.181265
-0.183169
-0.184684
-0.185913
-0.186887
-0.187674
-0.188293
-0.188797
-0.189187
-0.189505
-0.189742
-0.189941
-0.19008
-0.190195
-0.19027
-0.190331
-0.190359
-0.190379
-0.190368
-0.190352
-0.190303
-0.190243
-0.190144
-0.190023
-0.189851
-0.189633
-0.189335
-0.188954
-0.18844
-0.187772
-0.186879
-0.18571
-0.184158
-0.182123
-0.179443
-0.175944
-0.171379
-0.165479
-0.157895
-0.14825
-0.136112
-0.121064
-0.102718
-0.0808209
-0.0552677
-0.0261171
0.00682128
0.0447216
0.0920958
0.157365
0.254339
0.361975
0.353545
9.72733
22.3945
28.9821
31.4967
31.4579
29.8536
27.3639
24.4511
21.4346
18.5135
15.8049
13.366
11.2164
9.35139
7.75314
6.39647
5.2537
4.29717
3.50059
2.84006
2.29434
1.84482
1.47549
1.17273
0.924987
0.722607
0.557503
0.422986
0.313488
0.224452
0.152104
0.0933686
0.0456987
0.00705669
-0.0242741
-0.0496418
-0.0701886
-0.0868049
-0.100251
-0.111112
-0.119897
-0.126977
-0.132709
-0.137322
-0.141053
-0.144054
-0.14648
-0.148424
-0.15
-0.151252
-0.152268
-0.153072
-0.153722
-0.15423
-0.154645
-0.154964
-0.155224
-0.155415
-0.155576
-0.155686
-0.155778
-0.155835
-0.155881
-0.155899
-0.155913
-0.155898
-0.155881
-0.155836
-0.155782
-0.155694
-0.15559
-0.155441
-0.155257
-0.155004
-0.154684
-0.154253
-0.153696
-0.152952
-0.151981
-0.150692
-0.149006
-0.146785
-0.143888
-0.140109
-0.135228
-0.128954
-0.120979
-0.110946
-0.0985118
-0.0833553
-0.0652635
-0.0441304
-0.0199528
0.00755643
0.0396292
0.0804679
0.137592
0.222648
0.315984
0.305211
7.57364
17.4975
22.6883
24.6754
24.6516
23.3982
21.4498
19.1689
16.8058
14.5168
12.3938
10.4818
8.79644
7.33414
6.08092
5.0171
4.12097
3.37088
2.74621
2.22821
1.80025
1.44773
1.15808
0.920638
0.726338
0.567611
0.438115
0.332607
0.246716
0.176876
0.120122
0.0740443
0.0366439
0.00632767
-0.0182558
-0.0381586
-0.0542815
-0.0673172
-0.0778669
-0.0863867
-0.0932795
-0.098831
-0.103328
-0.106945
-0.109873
-0.112224
-0.114128
-0.115651
-0.116888
-0.117866
-0.118663
-0.119289
-0.119797
-0.12019
-0.120513
-0.120757
-0.120958
-0.1211
-0.121222
-0.121302
-0.121369
-0.121407
-0.121439
-0.121447
-0.121454
-0.121436
-0.121417
-0.121375
-0.121328
-0.121252
-0.121164
-0.12104
-0.12089
-0.120684
-0.120428
-0.120082
-0.119639
-0.119048
-0.118281
-0.117264
-0.115936
-0.114188
-0.111912
-0.108943
-0.10511
-0.100184
-0.093927
-0.0860562
-0.0763068
-0.0644243
-0.0502407
-0.0336589
-0.0146432
0.00711625
0.032753
0.0658631
0.11269
0.182487
0.258372
0.247413
5.414
12.5399
16.2838
17.7204
17.7072
16.809
15.4108
13.7734
12.0764
10.4322
8.90693
7.53317
6.32205
5.27118
4.37054
3.606
2.96196
2.42287
1.97392
1.60163
1.29405
1.04069
0.832511
0.661863
0.522214
0.408133
0.31506
0.239229
0.177493
0.127296
0.0865014
0.0533822
0.0264964
0.00470599
-0.0129664
-0.0272707
-0.0388607
-0.0482264
-0.0558074
-0.061926
-0.0668783
-0.0708621
-0.0740919
-0.0766865
-0.078789
-0.0804745
-0.0818414
-0.0829314
-0.0838193
-0.0845176
-0.0850875
-0.085532
-0.0858937
-0.0861684
-0.0863955
-0.0865625
-0.086702
-0.0867947
-0.0868766
-0.0869253
-0.086968
-0.0869863
-0.0870039
-0.0870005
-0.0870002
-0.0869785
-0.086959
-0.0869191
-0.0868791
-0.0868148
-0.0867447
-0.086646
-0.0865309
-0.0863732
-0.0861812
-0.0859225
-0.0855971
-0.085163
-0.0846046
-0.0838647
-0.0829044
-0.0816403
-0.0799984
-0.077857
-0.075096
-0.0715484
-0.067046
-0.0613836
-0.0543739
-0.0458318
-0.035637
-0.0237109
-0.01001
0.00573577
0.0244327
0.0488294
0.0835976
0.135441
0.191415
0.182137
3.25008
7.54037
9.80118
10.6702
10.6639
10.1238
9.28239
8.29659
7.27477
6.28452
5.36574
4.53818
3.80853
3.17539
2.63275
2.17211
1.78405
1.45925
1.18876
0.964448
0.779139
0.626501
0.501076
0.398276
0.31415
0.245429
0.189365
0.143692
0.106504
0.076272
0.0517012
0.0317558
0.0155609
0.00244052
-0.0082028
-0.016812
-0.0237907
-0.0294223
-0.033982
-0.0376568
-0.0406335
-0.0430211
-0.0449603
-0.0465133
-0.0477755
-0.0487822
-0.0496018
-0.0502508
-0.0507828
-0.0511951
-0.0515339
-0.0517926
-0.0520054
-0.0521592
-0.0522889
-0.0523776
-0.0524541
-0.0524965
-0.0525373
-0.0525539
-0.0525715
-0.0525699
-0.0525726
-0.0525581
-0.0525504
-0.0525251
-0.0525046
-0.0524676
-0.0524345
-0.0523822
-0.0523299
-0.0522567
-0.0521773
-0.0520683
-0.0519422
-0.0517723
-0.0515658
-0.0512911
-0.0509451
-0.0504873
-0.0499
-0.0491277
-0.0481304
-0.0468298
-0.0451578
-0.0430095
-0.0402883
-0.0368669
-0.0326366
-0.0274824
-0.0213345
-0.01414
-0.00586677
0.00366899
0.0150496
0.0299985
0.051403
0.0833214
0.11762
0.111458
1.08359
2.51606
3.27209
3.56297
3.56115
3.38101
3.10011
2.7709
2.42963
2.09882
1.79183
1.5153
1.27145
1.05981
0.878449
0.724491
0.594771
0.486229
0.395837
0.320878
0.258972
0.207996
0.166103
0.13179
0.103711
0.0807802
0.0620783
0.0468526
0.0344493
0.0243768
0.0161886
0.00954722
0.00415002
-0.000213558
-0.00375668
-0.00661246
-0.0089323
-0.0107912
-0.0122979
-0.0135032
-0.014483
-0.0152573
-0.0158919
-0.0163917
-0.0168041
-0.0171245
-0.0173903
-0.0175932
-0.0177652
-0.0178881
-0.0179932
-0.0180637
-0.0181257
-0.0181575
-0.0181886
-0.0181981
-0.0182106
-0.0182023
-0.0182015
-0.0181855
-0.0181777
-0.018156
-0.0181437
-0.0181181
-0.0181029
-0.0180741
-0.0180527
-0.0180186
-0.0179924
-0.0179523
-0.0179182
-0.0178708
-0.0178271
-0.0177674
-0.0177078
-0.0176277
-0.0175413
-0.0174275
-0.0172958
-0.017123
-0.0169123
-0.0166364
-0.0162899
-0.0158379
-0.015265
-0.014529
-0.013605
-0.0124444
-0.0110172
-0.00927963
-0.00721384
-0.00479695
-0.00202035
0.00118424
0.00501566
0.0100635
0.0173027
0.0280927
0.0396582
0.0375137
-1.08376
-2.51642
-3.27242
-3.56326
-3.56137
-3.38106
-3.10015
-2.77111
-2.43003
-2.09956
-1.79302
-1.5169
-1.27351
-1.06237
-0.881374
-0.727721
-0.598315
-0.48994
-0.399678
-0.324828
-0.262949
-0.21195
-0.170052
-0.135666
-0.107523
-0.0845184
-0.065741
-0.0504224
-0.0379611
-0.0278095
-0.019562
-0.012856
-0.00741956
-0.00299723
0.000583518
0.00350088
0.00585591
0.00778243
0.00933924
0.010612
0.0116364
0.0124811
0.0131557
0.0137133
0.0141538
0.0145223
0.0148125
0.0150574
0.015247
0.0154145
0.0155439
0.0156625
0.0157519
0.0158424
0.0159103
0.0159802
0.016032
0.016091
0.0161335
0.0161822
0.0162155
0.0162571
0.0162845
0.0163212
0.0163441
0.0163763
0.0163984
0.0164294
0.0164486
0.0164764
0.0164924
0.0165138
0.0165216
0.0165318
0.0165247
0.0165148
0.0164806
0.016433
0.0163497
0.0162367
0.0160696
0.0158476
0.0155414
0.015142
0.0146124
0.0139318
0.0130532
0.0119464
0.0105625
0.0088737
0.00684571
0.00446948
0.00172623
-0.00144125
-0.00523774
-0.0102441
-0.0174406
-0.0281832
-0.0397036
-0.0375233
-3.25025
-7.54071
-9.8015
-10.6705
-10.6641
-10.1239
-9.28243
-8.29681
-7.27518
-6.28527
-5.36694
-4.53979
-3.8106
-3.17795
-2.63569
-2.17535
-1.7876
-1.46297
-1.1926
-0.968402
-0.783118
-0.630457
-0.505025
-0.402154
-0.317962
-0.249167
-0.193028
-0.147262
-0.110015
-0.0797045
-0.0550744
-0.0350645
-0.0188295
-0.00565023
0.00503043
0.0137017
0.0207161
0.0264146
0.0310245
0.0347665
0.0377882
0.0402462
0.0422252
0.0438363
0.0451271
0.0461816
0.047026
0.0477171
0.0482669
0.0487237
0.0490867
0.0493937
0.049634
0.0498459
0.0500125
0.0501613
0.0502772
0.0503866
0.0504702
0.0505514
0.0506103
0.0506716
0.050714
0.0507615
0.0507921
0.0508276
0.0508503
0.050878
0.0508901
0.0509056
0.0509034
0.0508988
0.0508709
0.0508318
0.0507583
0.0506584
0.0505042
0.0502955
0.049998
0.0496001
0.0490564
0.0483382
0.0473815
0.0461334
0.0445047
0.0424115
0.0397356
0.0363679
0.0321809
0.0270752
0.0209651
0.0138112
0.00557136
-0.00392723
-0.0152728
-0.0301801
-0.0515419
-0.0834128
-0.117666
-0.111468
-5.41415
-12.5403
-16.2841
-17.7207
-17.7074
-16.809
-15.4109
-13.7736
-12.0769
-10.433
-8.90815
-7.53479
-6.32414
-5.27377
-4.37349
-3.60925
-2.96552
-2.4266
-1.97778
-1.60559
-1.29804
-1.04465
-0.836462
-0.665742
-0.526026
-0.41187
-0.318724
-0.242799
-0.181004
-0.130728
-0.0898742
-0.0566907
-0.0297632
-0.00791358
0.00979569
0.0241628
0.0357895
0.045221
0.0528522
0.0590376
0.0640355
0.0680897
0.0713589
0.0740122
0.0761441
0.0778771
0.0792695
0.0804017
0.0813078
0.0820506
0.0826443
0.0831375
0.083527
0.0838587
0.0841226
0.0843491
0.0845283
0.0846874
0.0848113
0.0849246
0.0850087
0.0850893
0.0851465
0.0852044
0.0852428
0.0852813
0.0853045
0.0853287
0.0853337
0.0853369
0.0853166
0.0852862
0.0852229
0.085135
0.0849957
0.0848067
0.0845336
0.0841655
0.0836559
0.0829758
0.0820592
0.0808494
0.0792483
0.0771597
0.0744419
0.070949
0.0664917
0.0608825
0.0539161
0.045422
0.035265
0.0233795
0.00971207
-0.00599645
-0.0246583
-0.0490132
-0.0837384
-0.135535
-0.191462
-0.182148
-7.57379
-17.4978
-22.6886
-24.6756
-24.6518
-23.3983
-21.4498
-19.1691
-16.8063
-14.5176
-12.395
-10.4835
-8.79856
-7.33675
-6.08389
-5.02037
-4.12455
-3.37462
-2.75008
-2.23218
-1.80425
-1.4517
-1.16203
-0.924522
-0.730151
-0.571348
-0.441779
-0.336178
-0.250227
-0.180308
-0.123494
-0.0773522
-0.0399085
-0.00953218
0.0150877
0.0350543
0.0512152
0.0643152
0.0749152
0.0835012
0.0904405
0.0960623
0.100598
0.104275
0.107233
0.109632
0.111562
0.113127
0.114383
0.115406
0.116226
0.116901
0.117437
0.117886
0.118245
0.118548
0.118789
0.118996
0.11916
0.119304
0.119413
0.119512
0.119584
0.119652
0.119698
0.119739
0.119763
0.119783
0.119781
0.119772
0.119734
0.119678
0.11958
0.119444
0.11924
0.118963
0.118573
0.118048
0.11733
0.116372
0.115089
0.113395
0.11116
0.108244
0.104454
0.0995823
0.0933702
0.0855522
0.0758458
0.0640109
0.0498649
0.0333237
0.0143414
-0.00738055
-0.032982
-0.0660501
-0.112834
-0.182582
-0.258422
-0.247425
-9.72745
-22.3948
-28.9824
-31.4969
-31.4581
-29.8537
-27.364
-24.4513
-21.4351
-18.5144
-15.8062
-13.3677
-11.2185
-9.35404
-7.75613
-6.39977
-5.2573
-4.30092
-3.50447
-2.84404
-2.29834
-1.84879
-1.47944
-1.17662
-0.928801
-0.726344
-0.561169
-0.426557
-0.316998
-0.227884
-0.155475
-0.0966755
-0.0489605
-0.0102573
0.0211098
0.0465418
0.0671283
0.0838078
0.0973036
0.108231
0.117063
0.124213
0.129984
0.134657
0.13842
0.141467
0.143921
0.145908
0.147504
0.1488
0.149839
0.150692
0.151371
0.151933
0.152385
0.152761
0.153061
0.153316
0.153517
0.153692
0.153824
0.153942
0.154028
0.154105
0.154158
0.154202
0.154226
0.154243
0.154233
0.154212
0.154157
0.154076
0.153943
0.15376
0.153493
0.153131
0.152626
0.151948
0.151026
0.149797
0.148155
0.145989
0.143134
0.139408
0.13457
0.128349
0.120419
0.110438
0.0980467
0.0829371
0.0648828
0.0437902
0.0196461
-0.0078255
-0.0398628
-0.0806591
-0.13774
-0.222748
-0.316037
-0.305224
-11.8734
-27.2109
-35.1316
-38.1459
-38.0872
-36.1379
-33.1186
-29.5888
-25.9353
-22.3989
-19.1208
-16.1697
-13.569
-11.313
-9.37971
-7.73872
-6.35653
-5.19953
-4.23603
-3.4371
-2.77699
-2.23322
-1.78646
-1.4202
-1.12048
-0.875637
-0.675894
-0.513124
-0.380652
-0.272914
-0.185376
-0.114299
-0.0566248
-0.00984884
0.0280576
0.0587849
0.0836587
0.103805
0.120104
0.133297
0.143961
0.152589
0.159554
0.165191
0.169732
0.173405
0.176365
0.178758
0.180683
0.182242
0.183494
0.184517
0.185333
0.186004
0.186545
0.186991
0.18735
0.18765
0.187887
0.18809
0.188246
0.18838
0.18848
0.188566
0.188626
0.188673
0.188696
0.188709
0.188692
0.188659
0.188587
0.188481
0.188316
0.188087
0.187759
0.187313
0.186698
0.185871
0.184751
0.183259
0.181269
0.178644
0.175187
0.170676
0.164819
0.157287
0.147686
0.1356
0.120594
0.102294
0.0804341
0.0549213
0.0258043
-0.0070962
-0.0449609
-0.0922923
-0.157517
-0.254443
-0.362031
-0.353559
-14.0099
-31.9232
-41.1008
-44.5837
-44.5006
-42.214
-38.6796
-34.5506
-30.2796
-26.1475
-22.3183
-18.872
-15.8353
-13.2014
-10.9444
-9.02871
-7.41522
-6.06465
-4.93998
-4.00745
-3.23698
-2.60233
-2.08093
-1.6535
-1.30375
-1.01805
-0.784992
-0.595092
-0.440549
-0.314875
-0.212772
-0.129878
-0.0626199
-0.00807776
0.0361179
0.0719355
0.10093
0.124406
0.143398
0.158767
0.171188
0.181235
0.189345
0.195905
0.201192
0.205466
0.208909
0.211692
0.21393
0.215742
0.217196
0.218382
0.219329
0.220105
0.22073
0.221244
0.221656
0.221999
0.222271
0.222501
0.222678
0.222829
0.222941
0.223036
0.223102
0.223151
0.223174
0.223183
0.22316
0.223115
0.223026
0.222897
0.2227
0.222427
0.22204
0.221514
0.220792
0.219821
0.218511
0.216766
0.214441
0.211373
0.207337
0.202068
0.195229
0.186432
0.175217
0.161096
0.143561
0.122174
0.0966317
0.0668545
0.0329843
-0.00498008
-0.0479863
-0.100503
-0.171412
-0.276359
-0.394432
-0.390567
-16.1345
-36.5055
-46.8528
-50.7712
-50.6604
-48.0462
-44.0136
-39.3067
-34.4415
-29.7369
-25.379
-21.4578
-18.0033
-15.0074
-12.4403
-10.2615
-8.42657
-6.89067
-5.61172
-4.5513
-3.67521
-2.95359
-2.36077
-1.87482
-1.47722
-1.15245
-0.887545
-0.671714
-0.496081
-0.353273
-0.237259
-0.143083
-0.0666795
-0.00472794
0.0454661
0.0861364
0.119058
0.145707
0.167263
0.184702
0.198796
0.210191
0.219389
0.226827
0.232822
0.237666
0.241568
0.24472
0.247257
0.249307
0.250953
0.252292
0.253364
0.254238
0.254943
0.25552
0.255984
0.256367
0.256671
0.256926
0.257124
0.25729
0.257414
0.257517
0.257588
0.25764
0.257662
0.257667
0.257637
0.257581
0.257476
0.257324
0.257096
0.256781
0.256338
0.255735
0.254911
0.253804
0.252312
0.250325
0.24768
0.244189
0.239598
0.233606
0.225826
0.215818
0.203057
0.186983
0.167021
0.142666
0.113585
0.079722
0.0413434
-0.00128941
-0.0487046
-0.104963
-0.178883
-0.287521
-0.411649
-0.414544
-18.2443
-40.9271
-52.3484
-56.6695
-56.5295
-53.5992
-49.0883
-43.8281
-38.3952
-33.145
-28.2837
-23.911
-20.0594
-16.7195
-13.8579
-11.4294
-9.38408
-7.67223
-6.24684
-5.06503
-4.08871
-3.28458
-2.62402
-2.08257
-1.63959
-1.27778
-0.982685
-0.742284
-0.546674
-0.387641
-0.258461
-0.153609
-0.0685553
0.000401749
0.0562654
0.10152
0.138149
0.167793
0.191767
0.211159
0.226829
0.239495
0.249718
0.257981
0.264643
0.270023
0.274356
0.277855
0.280671
0.282945
0.284771
0.286254
0.287442
0.288409
0.289188
0.289823
0.290335
0.290756
0.29109
0.291367
0.291584
0.291764
0.2919
0.292009
0.292085
0.292139
0.292161
0.292162
0.292125
0.292058
0.291938
0.291765
0.291508
0.291153
0.290656
0.289981
0.28906
0.287824
0.28616
0.283944
0.280995
0.277105
0.271988
0.265309
0.256638
0.245478
0.231248
0.213317
0.191041
0.163856
0.1314
0.0936502
0.0510276
0.00413782
-0.0469404
-0.105466
-0.179631
-0.287345
-0.41255
-0.423997
-20.3346
-45.1519
-57.5467
-62.2404
-62.0719
-58.8393
-53.8724
-48.0865
-42.1162
-36.3504
-31.0144
-26.2161
-21.9906
-18.3269
-15.1882
-12.5247
-10.2816
-8.40427
-6.84116
-5.54524
-4.4747
-3.59303
-2.8688
-2.27521
-1.78961
-1.39303
-1.0696
-0.806145
-0.591795
-0.41755
-0.276029
-0.161174
-0.0680194
0.00749547
0.0686642
0.118205
0.1583
0.190743
0.216976
0.23819
0.25533
0.269181
0.280359
0.28939
0.296672
0.30255
0.307285
0.311106
0.314181
0.316663
0.318655
0.320271
0.321567
0.322619
0.323466
0.324156
0.324711
0.325167
0.325528
0.325826
0.32606
0.326253
0.326399
0.326515
0.326595
0.326651
0.326672
0.326669
0.326626
0.326548
0.326414
0.326221
0.325936
0.325544
0.324997
0.324254
0.323243
0.321885
0.32006
0.317629
0.314396
0.31013
0.304521
0.297196
0.287687
0.275446
0.259832
0.240149
0.215688
0.185828
0.150178
0.10876
0.0621717
0.0114383
-0.0425767
-0.101937
-0.173609
-0.275675
-0.396553
-0.417703
-22.3974
-49.137
-62.4058
-67.4463
-67.2528
-63.7339
-58.3361
-52.0553
-45.5809
-39.3329
-33.5536
-28.3586
-23.7846
-19.8194
-16.4227
-13.5404
-11.1132
-9.08198
-7.39077
-5.98871
-4.83056
-3.87679
-3.09338
-2.45135
-1.92616
-1.49728
-1.14754
-0.862691
-0.630956
-0.442604
-0.289644
-0.16552
-0.0648647
0.0167198
0.0827968
0.136301
0.179599
0.214627
0.242944
0.26584
0.284335
0.299277
0.311335
0.321074
0.328925
0.335262
0.340365
0.344481
0.347793
0.350466
0.352611
0.354348
0.355743
0.356872
0.357782
0.358522
0.359115
0.359602
0.359988
0.360305
0.360555
0.360759
0.360914
0.361036
0.36112
0.361176
0.361197
0.36119
0.361141
0.361054
0.360907
0.360694
0.360384
0.359957
0.359363
0.358558
0.357463
0.355992
0.354018
0.351388
0.347892
0.343277
0.33721
0.329287
0.318999
0.305751
0.288847
0.26753
0.241026
0.208661
0.170018
0.125166
0.0749012
0.0207268
-0.0355507
-0.0944285
-0.161031
-0.252821
-0.36371
-0.394786
-24.4185
-52.8315
-66.8829
-72.2514
-72.0394
-68.2517
-62.4507
-55.7089
-48.7671
-42.0734
-35.8852
-30.3246
-25.4299