/*--------------------------------*- C++ -*----------------------------------*\
  =========                 |
  \\      /  F ield         | OpenFOAM: The Open Source CFD Toolbox
   \\    /   O peration     | Website:  https://openfoam.org
    \\  /    A nd           | Version:  7
     \\/     M anipulation  |
\*---------------------------------------------------------------------------*/
FoamFile
{
    version     2.0;
    format      ascii;
    class       surfaceScalarField;
    location    "2.5";
    object      phi;
}
// * * * * * * * * * * * * * * * * * * * * * * * * * * * * * * * * * * * * * //

dimensions      [0 3 -1 0 0 0 0];

internalField   nonuniform List<scalar> 
7860
(
0.00283433
0.00216568
0.00262119
0.000213134
0.00260883
1.23589e-05
0.00260634
2.4991e-06
0.00260905
-2.71965e-06
0.00260778
1.2705e-06
0.00260669
1.09805e-06
0.00260512
1.56628e-06
0.0026039
1.22008e-06
0.00260282
1.08214e-06
0.00260195
8.62101e-07
0.00260123
7.22696e-07
0.00260064
5.92888e-07
0.00260014
4.96053e-07
0.00259973
4.12789e-07
0.00259938
3.47733e-07
0.00259909
2.93957e-07
0.00259884
2.49015e-07
0.00259863
2.12902e-07
0.00259844
1.82787e-07
0.00259829
1.54676e-07
0.00259816
1.33817e-07
0.00259804
1.15621e-07
0.00259794
9.8296e-08
0.00259786
8.42146e-08
0.00259779
7.32418e-08
0.00259773
6.07721e-08
0.00259768
5.1941e-08
0.00259763
4.47358e-08
0.00259759
3.73703e-08
0.00259756
3.0632e-08
0.00259754
2.6641e-08
0.00259751
2.231e-08
0.00259749
1.96658e-08
0.00259748
1.54165e-08
0.00259747
1.31274e-08
0.00259745
1.10784e-08
0.00259745
9.97965e-09
0.00259744
6.76491e-09
0.00259743
5.60084e-09
0.00259743
5.13275e-09
0.00259742
4.76914e-09
0.00259742
2.71968e-09
0.00259742
2.74058e-09
0.00259741
2.02212e-09
0.00259741
2.81999e-09
0.00259741
2.24803e-09
0.00259741
1.39117e-09
0.00259741
7.49394e-10
0.00259741
2.14597e-09
0.00259741
6.91081e-10
0.0025974
6.38472e-10
0.0025974
8.47964e-11
0.0025974
4.58496e-10
0.0025974
-4.38996e-10
0.0025974
1.71025e-10
0.0025974
-4.10034e-10
0.0025974
6.52768e-11
0.0025974
-4.65339e-10
0.0025974
4.84042e-10
0.0025974
-4.47863e-11
0.0025974
6.58664e-10
0.0025974
1.00085e-10
0.0025974
5.27104e-10
0.0025974
1.38724e-10
0.0025974
7.14129e-10
0.0025974
-1.24751e-10
0.0025974
2.66007e-10
0.0025974
-1.2189e-10
0.0025974
4.60807e-10
0.0025974
-2.48241e-10
0.0025974
2.71169e-10
0.0025974
-9.43132e-11
0.0025974
3.46639e-10
0.0025974
-7.99905e-11
0.0025974
4.50559e-10
0.0025974
5.92797e-11
0.0025974
5.68174e-10
0.0025974
2.73934e-10
0.0025974
7.15495e-10
0.0025974
5.14257e-10
0.0025974
1.15827e-09
0.0025974
1.15124e-09
0.0025974
1.99754e-09
0.0025974
2.47847e-09
0.00259739
3.87709e-09
0.00259739
5.0942e-09
0.00259738
7.37576e-09
0.00259737
1.00951e-08
0.00259736
1.43128e-08
0.00259734
1.94837e-08
0.00259731
2.61159e-08
0.00259728
3.32569e-08
0.00259724
3.73645e-08
0.00259721
3.31785e-08
0.00259718
2.26019e-08
0.00259708
1.01493e-07
0.00259639
6.96015e-07
0.00259378
2.60242e-06
-1.19032e-06
0.00456761
0.00259807
0.00437532
0.000405424
0.00434651
4.11731e-05
0.00434274
6.26461e-06
0.00434575
-5.72637e-06
0.00434422
2.79991e-06
0.00434259
2.72401e-06
0.00434039
3.76889e-06
0.00433861
3.00624e-06
0.00433703
2.65588e-06
0.00433576
2.13173e-06
0.0043347
1.78392e-06
0.00433383
1.4661e-06
0.0043331
1.22678e-06
0.00433249
1.0216e-06
0.00433198
8.60431e-07
0.00433155
7.2787e-07
0.00433118
6.18357e-07
0.00433086
5.27654e-07
0.00433059
4.52759e-07
0.00433036
3.85837e-07
0.00433016
3.32509e-07
0.00432999
2.86363e-07
0.00432984
2.45415e-07
0.00432972
2.10047e-07
0.00432961
1.81662e-07
0.00432951
1.52992e-07
0.00432943
1.31037e-07
0.00432937
1.12196e-07
0.00432931
9.54101e-08
0.00432926
7.91705e-08
0.00432922
6.80587e-08
0.00432918
5.71216e-08
0.00432915
4.97731e-08
0.00432913
4.02651e-08
0.00432911
3.44964e-08
0.00432909
2.88021e-08
0.00432908
2.56953e-08
0.00432906
1.93266e-08
0.00432905
1.62555e-08
0.00432905
1.35983e-08
0.00432904
1.25481e-08
0.00432903
8.61611e-09
0.00432903
7.95682e-09
0.00432902
5.73174e-09
0.00432902
6.5225e-09
0.00432902
4.86646e-09
0.00432901
3.90963e-09
0.00432901
2.22187e-09
0.00432901
4.03258e-09
0.00432901
1.66838e-09
0.00432901
2.05896e-09
0.00432901
7.80175e-10
0.00432901
1.57237e-09
0.00432901
-6.75961e-11
0.00432901
1.12887e-09
0.00432901
-9.53231e-11
0.00432901
8.46914e-10
0.00432901
-3.79938e-10
0.00432901
1.10457e-09
0.00432901
-7.80531e-11
0.00432901
1.07292e-09
0.00432901
-1.52237e-10
0.00432901
7.35757e-10
0.00432901
-1.48886e-10
0.00432901
9.74336e-10
0.00432901
-4.32549e-10
0.00432901
5.02242e-10
0.00432901
-3.2015e-10
0.00432901
7.74234e-10
0.00432901
-4.60301e-10
0.00432901
5.09133e-10
0.00432901
-3.17799e-10
0.00432901
5.6182e-10
0.00432901
-3.07049e-10
0.00432901
6.5135e-10
0.00432901
-1.27323e-10
0.00432901
8.5833e-10
0.00432901
3.09318e-10
0.00432901
1.28317e-09
0.00432901
1.00527e-09
0.00432901
2.37698e-09
0.004329
2.57933e-09
0.004329
4.51024e-09
0.004329
5.84931e-09
0.00432899
9.15746e-09
0.00432898
1.24099e-08
0.00432897
1.81046e-08
0.00432896
2.51001e-08
0.00432894
3.56395e-08
0.00432891
4.89165e-08
0.00432887
6.59576e-08
0.00432882
8.54216e-08
0.00432875
9.96895e-08
0.00432868
1.04358e-07
0.00432859
1.11264e-07
0.00432828
4.17145e-07
0.00432694
2.02817e-06
0.00432236
7.18221e-06
7.90986e-06
0.00507199
0.00252607
0.00495541
0.000522006
0.00492272
7.38593e-05
0.00492046
8.52958e-06
0.00492229
-7.55229e-06
0.00492113
3.95367e-06
0.00491946
4.39499e-06
0.00491739
5.83927e-06
0.00491564
4.76072e-06
0.00491411
4.18095e-06
0.00491287
3.37615e-06
0.00491183
2.81991e-06
0.00491098
2.32056e-06
0.00491027
1.93943e-06
0.00490967
1.61708e-06
0.00490917
1.36204e-06
0.00490875
1.15262e-06
0.00490838
9.8058e-07
0.00490807
8.369e-07
0.00490781
7.18193e-07
0.00490758
6.14236e-07
0.00490738
5.29613e-07
0.00490721
4.55981e-07
0.00490706
3.92064e-07
0.00490694
3.35948e-07
0.00490683
2.90405e-07
0.00490674
2.46583e-07
0.00490665
2.11327e-07
0.00490659
1.80478e-07
0.00490653
1.54901e-07
0.00490648
1.29634e-07
0.00490643
1.10587e-07
0.0049064
9.27873e-08
0.00490637
8.11137e-08
0.00490634
6.69492e-08
0.00490632
5.70794e-08
0.0049063
4.73531e-08
0.00490628
4.2103e-08
0.00490627
3.30767e-08
0.00490626
2.79169e-08
0.00490625
2.2549e-08
0.00490624
2.05984e-08
0.00490624
1.52918e-08
0.00490623
1.36777e-08
0.00490623
9.80465e-09
0.00490622
1.0356e-08
0.00490622
7.82204e-09
0.00490622
6.79332e-09
0.00490621
4.01634e-09
0.00490621
5.95989e-09
0.00490621
2.98914e-09
0.00490621
3.61363e-09
0.00490621
1.68162e-09
0.00490621
2.70123e-09
0.00490621
4.22825e-10
0.00490621
2.06988e-09
0.00490621
3.37441e-10
0.00490621
1.57907e-09
0.00490621
-1.46077e-10
0.00490621
1.63302e-09
0.00490621
-5.10011e-12
0.00490621
1.44536e-09
0.00490621
-3.2869e-10
0.00490621
8.81652e-10
0.00490621
-3.98117e-10
0.00490621
1.16457e-09
0.00490621
-6.21957e-10
0.00490621
6.63968e-10
0.00490621
-4.67518e-10
0.00490621
1.00492e-09
0.00490621
-5.96033e-10
0.00490621
6.70535e-10
0.00490621
-5.17085e-10
0.00490621
6.85833e-10
0.00490621
-5.00468e-10
0.00490621
7.6167e-10
0.00490621
-2.87392e-10
0.00490621
1.06157e-09
0.00490621
3.96841e-10
0.00490621
1.82587e-09
0.00490621
1.56736e-09
0.00490621
3.59146e-09
0.0049062
4.13549e-09
0.0049062
7.08066e-09
0.0049062
9.37302e-09
0.00490619
1.45087e-08
0.00490618
1.98723e-08
0.00490617
2.89021e-08
0.00490616
4.02029e-08
0.00490614
5.7013e-08
0.00490611
7.85727e-08
0.00490607
1.06452e-07
0.00490601
1.40126e-07
0.00490594
1.69371e-07
0.00490585
2.00066e-07
0.0049057
2.56671e-07
0.00490523
8.91211e-07
0.00490361
3.64812e-06
0.00489776
1.30251e-05
2.27387e-05
0.00520988
0.00231619
0.00513955
0.000592341
0.00511246
0.000100949
0.00511131
9.67577e-06
0.00511239
-8.62702e-06
0.00511155
4.79319e-06
0.00511008
5.86502e-06
0.00510834
7.58287e-06
0.00510682
6.27725e-06
0.00510551
5.4918e-06
0.00510443
4.45387e-06
0.00510354
3.71533e-06
0.0051028
3.05982e-06
0.00510218
2.55682e-06
0.00510166
2.13243e-06
0.00510123
1.79663e-06
0.00510086
1.52101e-06
0.00510055
1.29531e-06
0.00510028
1.10631e-06
0.00510005
9.50118e-07
0.00509984
8.14673e-07
0.00509967
7.03464e-07
0.00509952
6.06006e-07
0.00509939
5.22065e-07
0.00509928
4.48168e-07
0.00509918
3.87683e-07
0.0050991
3.30989e-07
0.00509902
2.84161e-07
0.00509896
2.42223e-07
0.00509891
2.08653e-07
0.00509886
1.75807e-07
0.00509882
1.49973e-07
0.00509879
1.25686e-07
0.00509876
1.09883e-07
0.00509873
9.19944e-08
0.00509871
7.83875e-08
0.0050987
6.45969e-08
0.00509868
5.72042e-08
0.00509867
4.60052e-08
0.00509866
3.90041e-08
0.00509865
3.09938e-08
0.00509864
2.80465e-08
0.00509864
2.16534e-08
0.00509863
1.92226e-08
0.00509863
1.39545e-08
0.00509862
1.40272e-08
0.00509862
1.07856e-08
0.00509862
9.83718e-09
0.00509861
5.92328e-09
0.00509861
7.81284e-09
0.00509861
4.50278e-09
0.00509861
5.04907e-09
0.00509861
2.4251e-09
0.00509861
3.71553e-09
0.00509861
8.58303e-10
0.00509861
2.76035e-09
0.00509861
6.57974e-10
0.00509861
2.17559e-09
0.00509861
1.01812e-10
0.00509861
2.13052e-09
0.00509861
1.42204e-10
0.00509861
1.84924e-09
0.00509861
-3.40252e-10
0.00509861
1.13845e-09
0.00509861
-5.30405e-10
0.00509861
1.36406e-09
0.00509861
-6.75348e-10
0.00509861
8.22279e-10
0.00509861
-6.21331e-10
0.00509861
1.18783e-09
0.00509861
-6.83492e-10
0.00509861
7.86323e-10
0.00509861
-6.808e-10
0.00509861
8.11009e-10
0.00509861
-6.23353e-10
0.00509861
8.96139e-10
0.00509861
-3.35735e-10
0.00509861
1.29321e-09
0.00509861
5.61289e-10
0.00509861
2.39797e-09
0.00509861
2.16652e-09
0.00509861
4.75703e-09
0.00509861
5.67136e-09
0.0050986
9.51583e-09
0.0050986
1.26715e-08
0.00509859
1.93967e-08
0.00509859
2.66314e-08
0.00509858
3.85927e-08
0.00509856
5.37025e-08
0.00509854
7.6063e-08
0.00509852
1.05144e-07
0.00509848
1.4322e-07
0.00509843
1.91713e-07
0.00509836
2.39916e-07
0.00509825
3.1087e-07
0.00509806
4.41426e-07
0.00509749
1.45883e-06
0.00509584
5.30142e-06
0.00508958
1.92892e-05
3.78146e-05
0.00523327
0.00208292
0.00519415
0.000631461
0.00517348
0.000121617
0.00517314
1.00129e-05
0.00517375
-9.23464e-06
0.00517322
5.3281e-06
0.00517203
7.05637e-06
0.00517065
8.95736e-06
0.00516943
7.49613e-06
0.00516838
6.54432e-06
0.00516751
5.32429e-06
0.00516679
4.43908e-06
0.00516619
3.65801e-06
0.00516569
3.05367e-06
0.00516527
2.54974e-06
0.00516492
2.14961e-06
0.00516462
1.8204e-06
0.00516437
1.55158e-06
0.00516415
1.32668e-06
0.00516395
1.14069e-06
0.00516379
9.79931e-07
0.00516365
8.4713e-07
0.00516352
7.30396e-07
0.00516341
6.30446e-07
0.00516332
5.42143e-07
0.00516324
4.69218e-07
0.00516316
4.02072e-07
0.0051631
3.46425e-07
0.00516305
2.94841e-07
0.005163
2.54269e-07
0.00516296
2.15461e-07
0.00516293
1.8441e-07
0.0051629
1.54401e-07
0.00516288
1.34624e-07
0.00516285
1.13772e-07
0.00516284
9.7278e-08
0.00516282
7.9833e-08
0.00516281
7.0293e-08
0.0051628
5.73309e-08
0.00516279
4.89997e-08
0.00516278
3.86721e-08
0.00516277
3.46237e-08
0.00516277
2.73237e-08
0.00516276
2.43216e-08
0.00516276
1.79054e-08
0.00516275
1.73959e-08
0.00516275
1.34174e-08
0.00516275
1.26717e-08
0.00516275
7.79353e-09
0.00516275
9.50297e-09
0.00516274
5.9269e-09
0.00516274
6.32846e-09
0.00516274
3.04107e-09
0.00516274
4.63025e-09
0.00516274
1.30152e-09
0.00516274
3.31147e-09
0.00516274
8.73017e-10
0.00516274
2.67699e-09
0.00516274
3.93259e-10
0.00516274
2.59807e-09
0.00516274
2.99011e-10
0.00516274
2.23139e-09
0.00516274
-2.55325e-10
0.00516274
1.46039e-09
0.00516274
-5.85511e-10
0.00516274
1.5247e-09
0.00516274
-6.90311e-10
0.00516274
9.80106e-10
0.00516274
-7.71986e-10
0.00516274
1.29983e-09
0.00516274
-7.55121e-10
0.00516274
8.7688e-10
0.00516274
-8.22578e-10
0.00516274
9.17508e-10
0.00516274
-7.10732e-10
0.00516274
1.01281e-09
0.00516274
-3.4878e-10
0.00516274
1.50136e-09
0.00516274
7.08677e-10
0.00516274
2.90316e-09
0.00516274
2.70429e-09
0.00516274
5.76454e-09
0.00516274
7.02587e-09
0.00516274
1.16329e-08
0.00516273
1.55112e-08
0.00516273
2.35411e-08
0.00516272
3.23225e-08
0.00516272
4.67164e-08
0.0051627
6.49959e-08
0.00516269
9.2014e-08
0.00516267
1.27584e-07
0.00516263
1.74856e-07
0.00516259
2.38039e-07
0.00516252
3.07905e-07
0.0051624
4.28631e-07
0.00516219
6.48389e-07
0.00516161
2.04298e-06
0.00516004
6.8683e-06
0.00515416
2.51732e-05
5.09457e-05
0.00522258
0.00186034
0.00520652
0.000647516
0.00519179
0.000136351
0.00519199
9.80452e-06
0.00519232
-9.56238e-06
0.00519206
5.5938e-06
0.00519116
7.94984e-06
0.00519016
9.96113e-06
0.00518925
8.41058e-06
0.00518846
7.3328e-06
0.0051878
5.98207e-06
0.00518725
4.98666e-06
0.0051868
4.11165e-06
0.00518642
3.4314e-06
0.0051861
2.86736e-06
0.00518583
2.41917e-06
0.0051856
2.04952e-06
0.00518541
1.74811e-06
0.00518524
1.49674e-06
0.00518509
1.28873e-06
0.00518496
1.10856e-06
0.00518485
9.59237e-07
0.00518475
8.28047e-07
0.00518466
7.16181e-07
0.00518459
6.17049e-07
0.00518452
5.34367e-07
0.00518447
4.58969e-07
0.00518442
3.9628e-07
0.00518437
3.3768e-07
0.00518434
2.9111e-07
0.0051843
2.47499e-07
0.00518428
2.12858e-07
0.00518425
1.78363e-07
0.00518423
1.54902e-07
0.00518421
1.31494e-07
0.0051842
1.13063e-07
0.00518419
9.27194e-08
0.00518418
8.11691e-08
0.00518417
6.66379e-08
0.00518416
5.74219e-08
0.00518415
4.53766e-08
0.00518415
4.03071e-08
0.00518414
3.21018e-08
0.00518414
2.87391e-08
0.00518413
2.14115e-08
0.00518413
2.03762e-08
0.00518413
1.56686e-08
0.00518413
1.51e-08
0.00518412
9.4956e-09
0.00518412
1.1025e-08
0.00518412
7.14538e-09
0.00518412
7.44708e-09
0.00518412
3.57537e-09
0.00518412
5.44286e-09
0.00518412
1.70819e-09
0.00518412
3.74097e-09
0.00518412
9.97773e-10
0.00518412
3.08184e-09
0.00518412
6.34554e-10
0.00518412
2.9999e-09
0.00518412
4.11823e-10
0.00518412
2.57157e-09
0.00518412
-1.17528e-10
0.00518412
1.80252e-09
0.00518412
-5.88522e-10
0.00518412
1.67317e-09
0.00518412
-7.04837e-10
0.00518412
1.13076e-09
0.00518412
-9.15893e-10
0.00518412
1.35434e-09
0.00518412
-8.48062e-10
0.00518412
9.46104e-10
0.00518412
-9.50523e-10
0.00518412
9.93079e-10
0.00518412
-7.9497e-10
0.00518412
1.10154e-09
0.00518412
-3.69722e-10
0.00518412
1.67343e-09
0.00518412
8.13284e-10
0.00518412
3.31563e-09
0.00518412
3.15067e-09
0.00518412
6.5983e-09
0.00518412
8.14112e-09
0.00518412
1.33816e-08
0.00518411
1.78196e-08
0.00518411
2.68403e-08
0.00518411
3.68289e-08
0.0051841
5.31603e-08
0.00518409
7.39428e-08
0.00518408
1.04688e-07
0.00518406
1.45613e-07
0.00518403
2.00889e-07
0.00518399
2.78055e-07
0.00518393
3.70102e-07
0.00518381
5.45513e-07
0.0051836
8.5884e-07
0.00518303
2.61346e-06
0.00518165
8.24745e-06
0.00517661
3.02183e-05
6.15786e-05
0.00520393
0.00165641
0.00520545
0.000645999
0.00519604
0.000145755
0.00519661
9.24042e-06
0.00519675
-9.70922e-06
0.00519672
5.62739e-06
0.00519612
8.55118e-06
0.00519547
1.06159e-05
0.00519484
9.03134e-06
0.00519431
7.86759e-06
0.00519386
6.43413e-06
0.00519348
5.36417e-06
0.00519317
4.42583e-06
0.0051929
3.69405e-06
0.00519268
3.08878e-06
0.00519249
2.6077e-06
0.00519233
2.21066e-06
0.00519219
1.88692e-06
0.00519207
1.61746e-06
0.00519197
1.39473e-06
0.00519187
1.20107e-06
0.00519179
1.03994e-06
0.00519172
8.9886e-07
0.00519166
7.78938e-07
0.0051916
6.72172e-07
0.00519156
5.8258e-07
0.00519151
5.00957e-07
0.00519148
4.33566e-07
0.00519144
3.7022e-07
0.00519141
3.19095e-07
0.00519139
2.7162e-07
0.00519137
2.34662e-07
0.00519135
1.9711e-07
0.00519133
1.70552e-07
0.00519132
1.44938e-07
0.00519131
1.25365e-07
0.0051913
1.02928e-07
0.00519129
8.96783e-08
0.00519128
7.38682e-08
0.00519128
6.41024e-08
0.00519127
5.0859e-08
0.00519127
4.49529e-08
0.00519126
3.58302e-08
0.00519126
3.2243e-08
0.00519126
2.43166e-08
0.00519125
2.28248e-08
0.00519125
1.74501e-08
0.00519125
1.70526e-08
0.00519125
1.09329e-08
0.00519125
1.22823e-08
0.00519125
8.10812e-09
0.00519125
8.40324e-09
0.00519125
4.03969e-09
0.00519125
6.1356e-09
0.00519124
2.09362e-09
0.00519124
4.08227e-09
0.00519124
1.07091e-09
0.00519124
3.41059e-09
0.00519124
8.16458e-10
0.00519124
3.31884e-09
0.00519124
4.7365e-10
0.00519124
2.82839e-09
0.00519124
1.52232e-11
0.00519124
2.10873e-09
0.00519124
-5.90951e-10
0.00519124
1.77105e-09
0.00519125
-7.48923e-10
0.00519125
1.24317e-09
0.00519125
-1.06403e-09
0.00519125
1.34697e-09
0.00519125
-9.68551e-10
0.00519125
9.80687e-10
0.00519125
-1.08176e-09
0.00519125
1.02129e-09
0.00519125
-9.04131e-10
0.00519125
1.13604e-09
0.00519125
-4.32183e-10
0.00519125
1.7766e-09
0.00519125
8.5828e-10
0.00519125
3.61291e-09
0.00519125
3.48815e-09
0.00519125
7.24347e-09
0.00519124
8.99838e-09
0.00519124
1.47363e-08
0.00519124
1.95859e-08
0.00519124
2.93851e-08
0.00519123
4.02119e-08
0.00519123
5.79387e-08
0.00519122
8.05637e-08
0.00519121
1.14097e-07
0.0051912
1.592e-07
0.00519118
2.2113e-07
0.00519115
3.10935e-07
0.00519109
4.24786e-07
0.00519098
6.54779e-07
0.00519078
1.05904e-06
0.00519026
3.13118e-06
0.00518913
9.3806e-06
0.00518513
3.42145e-05
6.96157e-05
0.00518536
0.00147105
0.00520052
0.000630841
0.00519583
0.000150444
0.0051966
8.46474e-06
0.00519661
-9.72024e-06
0.00519677
5.47112e-06
0.00519644
8.87737e-06
0.00519611
1.09502e-05
0.00519576
9.37698e-06
0.00519547
8.16491e-06
0.00519521
6.69224e-06
0.00519499
5.58133e-06
0.00519481
4.6082e-06
0.00519466
3.8473e-06
0.00519453
3.21897e-06
0.00519441
2.71926e-06
0.00519432
2.30705e-06
0.00519423
1.97089e-06
0.00519416
1.69091e-06
0.0051941
1.45985e-06
0.00519404
1.25858e-06
0.00519399
1.09046e-06
0.00519394
9.43616e-07
0.0051939
8.19128e-07
0.00519387
7.07732e-07
0.00519383
6.14073e-07
0.00519381
5.28534e-07
0.00519378
4.58239e-07
0.00519376
3.92167e-07
0.00519374
3.38229e-07
0.00519372
2.87898e-07
0.00519371
2.495e-07
0.0051937
2.10256e-07
0.00519368
1.81533e-07
0.00519367
1.54107e-07
0.00519367
1.33956e-07
0.00519366
1.1021e-07
0.00519365
9.5714e-08
0.00519365
7.89895e-08
0.00519364
6.8934e-08
0.00519364
5.49179e-08
0.00519364
4.8348e-08
0.00519363
3.85495e-08
0.00519363
3.48857e-08
0.00519363
2.64958e-08
0.00519363
2.46423e-08
0.00519362
1.87255e-08
0.00519362
1.85036e-08
0.00519362
1.20523e-08
0.00519362
1.3236e-08
0.00519362
8.79829e-09
0.00519362
9.18608e-09
0.00519362
4.43764e-09
0.00519362
6.67785e-09
0.00519362
2.43408e-09
0.00519362
4.35372e-09
0.00519362
1.10047e-09
0.00519362
3.66161e-09
0.00519362
9.37014e-10
0.00519362
3.55009e-09
0.00519362
4.95257e-10
0.00519362
3.00308e-09
0.00519362
1.1772e-10
0.00519362
2.36016e-09
0.00519362
-6.09038e-10
0.00519362
1.80999e-09
0.00519362
-8.30645e-10
0.00519362
1.30248e-09
0.00519362
-1.22097e-09
0.00519362
1.28257e-09
0.00519362
-1.11613e-09
0.00519362
9.72088e-10
0.00519362
-1.22744e-09
0.00519362
9.93506e-10
0.00519362
-1.0514e-09
0.00519362
1.10552e-09
0.00519362
-5.47729e-10
0.00519362
1.79981e-09
0.00519362
8.43261e-10
0.00519362
3.79738e-09
0.00519362
3.71712e-09
0.00519362
7.69969e-09
0.00519362
9.59618e-09
0.00519362
1.5692e-08
0.00519362
2.08142e-08
0.00519362
3.10219e-08
0.00519361
4.24775e-08
0.00519361
6.1152e-08
0.00519361
8.4941e-08
0.0051936
1.20322e-07
0.00519359
1.68389e-07
0.00519358
2.35463e-07
0.00519355
3.36036e-07
0.00519351
4.69831e-07
0.00519341
7.50217e-07
0.00519323
1.2359e-06
0.0051928
3.56488e-06
0.00519195
1.0235e-05
0.00518909
3.70746e-05
7.50842e-05
0.00516893
0.00130213
0.00519487
0.000604903
0.00519432
0.000150988
0.0051952
7.58591e-06
0.00519509
-9.60931e-06
0.00519539
5.16883e-06
0.00519532
8.95097e-06
0.00519528
1.09938e-05
0.00519519
9.46897e-06
0.00519511
8.24312e-06
0.00519503
6.77008e-06
0.00519496
5.64909e-06
0.0051949
4.66744e-06
0.00519485
3.89795e-06
0.00519481
3.26353e-06
0.00519477
2.75862e-06
0.00519473
2.34236e-06
0.0051947
2.00293e-06
0.00519467
1.71958e-06
0.00519465
1.48593e-06
0.00519462
1.28254e-06
0.0051946
1.11224e-06
0.00519458
9.63377e-07
0.00519456
8.37387e-07
0.00519454
7.24198e-07
0.00519453
6.292e-07
0.00519451
5.4214e-07
0.0051945
4.70553e-07
0.00519449
4.03451e-07
0.00519448
3.48497e-07
0.00519447
2.96526e-07
0.00519446
2.57367e-07
0.00519446
2.17576e-07
0.00519445
1.87793e-07
0.00519444
1.5906e-07
0.00519444
1.38722e-07
0.00519444
1.14415e-07
0.00519443
9.92232e-08
0.00519443
8.19866e-08
0.00519443
7.18972e-08
0.00519442
5.74682e-08
0.00519442
5.05493e-08
0.00519442
4.01859e-08
0.00519442
3.65629e-08
0.00519442
2.7971e-08
0.00519442
2.58366e-08
0.00519441
1.94592e-08
0.00519441
1.94339e-08
0.00519441
1.27914e-08
0.00519441
1.38191e-08
0.00519441
9.12269e-09
0.00519441
9.7458e-09
0.00519441
4.75697e-09
0.00519441
7.03153e-09
0.00519441
2.69735e-09
0.00519441
4.56245e-09
0.00519441
1.09569e-09
0.00519441
3.82553e-09
0.00519441
1.00476e-09
0.00519441
3.7007e-09
0.00519441
4.91628e-10
0.00519441
3.10878e-09
0.00519441
1.81881e-10
0.00519441
2.55204e-09
0.00519441
-6.41203e-10
0.00519441
1.7914e-09
0.00519441
-9.43496e-10
0.00519441
1.30965e-09
0.00519441
-1.38373e-09
0.00519441
1.1744e-09
0.00519441
-1.28256e-09
0.00519441
9.24332e-10
0.00519441
-1.38913e-09
0.00519441
9.15152e-10
0.00519441
-1.23566e-09
0.00519441
1.01111e-09
0.00519441
-7.10109e-10
0.00519441
1.74086e-09
0.00519441
7.70065e-10
0.00519441
3.87604e-09
0.00519441
3.84055e-09
0.00519441
7.94905e-09
0.00519441
9.91041e-09
0.00519441
1.62356e-08
0.00519441
2.14445e-08
0.00519441
3.19571e-08
0.00519441
4.36203e-08
0.00519441
6.27454e-08
0.00519441
8.70806e-08
0.0051944
1.23407e-07
0.0051944
1.73215e-07
0.00519439
2.43797e-07
0.00519437
3.52727e-07
0.00519434
5.03229e-07
0.00519426
8.26302e-07
0.00519412
1.37847e-06
0.00519379
3.8925e-06
0.00519324
1.07919e-05
0.00519153
3.87757e-05
7.80791e-05
0.00515491
0.00114722
0.00518948
0.00057033
0.00519258
0.000147891
0.00519349
6.67922e-06
0.00519325
-9.37423e-06
0.00519366
4.76188e-06
0.00519381
8.79711e-06
0.00519403
1.07761e-05
0.00519417
9.32956e-06
0.00519429
8.12131e-06
0.00519438
6.68219e-06
0.00519445
5.57886e-06
0.00519451
4.61276e-06
0.00519455
3.8535e-06
0.00519458
3.22845e-06
0.00519461
2.73086e-06
0.00519463
2.32054e-06
0.00519465
1.98604e-06
0.00519466
1.70621e-06
0.00519467
1.47536e-06
0.00519468
1.27472e-06
0.00519469
1.10671e-06
0.00519469
9.59378e-07
0.00519469
8.34674e-07
0.00519469
7.22344e-07
0.0051947
6.28507e-07
0.00519469
5.42233e-07
0.00519469
4.71e-07
0.00519469
4.04285e-07
0.00519469
3.49933e-07
0.00519469
2.97726e-07
0.00519469
2.58494e-07
0.00519469
2.1904e-07
0.00519469
1.89294e-07
0.00519468
1.59912e-07
0.00519468
1.3969e-07
0.00519468
1.15501e-07
0.00519468
1.00205e-07
0.00519468
8.28525e-08
0.00519468
7.29661e-08
0.00519468
5.84536e-08
0.00519468
5.14846e-08
0.00519468
4.08013e-08
0.00519468
3.72537e-08
0.00519468
2.85927e-08
0.00519468
2.63514e-08
0.00519468
1.96831e-08
0.00519467
1.9879e-08
0.00519467
1.319e-08
0.00519467
1.41431e-08
0.00519467
9.3715e-09
0.00519467
1.01689e-08
0.00519467
4.93848e-09
0.00519467
7.26144e-09
0.00519467
2.84773e-09
0.00519467
4.7031e-09
0.00519467
1.07752e-09
0.00519467
3.89051e-09
0.00519467
1.02225e-09
0.00519467
3.77774e-09
0.00519467
4.72909e-10
0.00519467
3.15707e-09
0.00519467
2.10075e-10
0.00519468
2.67926e-09
0.00519468
-6.74003e-10
0.00519468
1.72676e-09
0.00519468
-1.06472e-09
0.00519468
1.28224e-09
0.00519468
-1.53722e-09
0.00519468
1.05019e-09
0.00519468
-1.45213e-09
0.00519468
8.74354e-10
0.00519468
-1.56345e-09
0.00519468
8.19195e-10
0.00519468
-1.45819e-09
0.00519468
8.66676e-10
0.00519468
-9.04034e-10
0.00519468
1.60977e-09
0.00519468
6.3914e-10
0.00519468
3.8569e-09
0.00519468
3.83521e-09
0.00519468
8.04461e-09
0.00519468
1.0006e-08
0.00519468
1.63973e-08
0.00519468
2.15504e-08
0.00519468
3.20578e-08
0.00519468
4.3633e-08
0.00519468
6.27435e-08
0.00519468
8.70246e-08
0.00519468
1.23429e-07
0.00519468
1.73745e-07
0.00519467
2.46079e-07
0.00519467
3.60494e-07
0.00519465
5.2336e-07
0.00519459
8.78624e-07
0.00519449
1.47852e-06
0.00519429
4.09935e-06
0.00519404
1.10425e-05
0.00519348
3.93361e-05
7.87411e-05
0.0051431
0.00100412
0.00518464
0.00052879
0.00519093
0.000141603
0.00519182
5.79212e-06
0.00519145
-9.00681e-06
0.00519192
4.28677e-06
0.00519228
8.44174e-06
0.00519273
1.0326e-05
0.00519308
8.98107e-06
0.00519338
7.81856e-06
0.00519362
6.44356e-06
0.00519382
5.38246e-06
0.00519398
4.45363e-06
0.00519411
3.72191e-06
0.00519422
3.12e-06
0.00519431
2.64114e-06
0.00519438
2.24586e-06
0.00519444
1.92357e-06
0.00519449
1.65366e-06
0.00519454
1.43083e-06
0.00519458
1.23723e-06
0.00519461
1.07539e-06
0.00519463
9.32957e-07
0.00519466
8.12241e-07
0.00519467
7.03255e-07
0.00519469
6.12762e-07
0.0051947
5.29359e-07
0.00519471
4.60177e-07
0.00519472
3.9515e-07
0.00519473
3.42726e-07
0.00519473
2.9173e-07
0.00519474
2.53232e-07
0.00519474
2.14811e-07
0.00519475
1.86062e-07
0.00519475
1.56792e-07
0.00519475
1.37006e-07
0.00519475
1.13524e-07
0.00519476
9.86956e-08
0.00519476
8.16097e-08
0.00519476
7.21518e-08
0.00519476
5.78667e-08
0.00519476
5.11186e-08
0.00519476
4.03875e-08
0.00519476
3.695e-08
0.00519476
2.83761e-08
0.00519476
2.6193e-08
0.00519476
1.93725e-08
0.00519476
1.97886e-08
0.00519476
1.31467e-08
0.00519476
1.4054e-08
0.00519476
9.25391e-09
0.00519476
1.03185e-08
0.00519476
4.98759e-09
0.00519476
7.27756e-09
0.00519476
2.87081e-09
0.00519476
4.76394e-09
0.00519476
1.0088e-09
0.00519476
3.85542e-09
0.00519476
9.72739e-10
0.00519476
3.79957e-09
0.00519476
4.27205e-10
0.00519476
3.16074e-09
0.00519476
2.01224e-10
0.00519476
2.749e-09
0.00519476
-7.02293e-10
0.00519476
1.63659e-09
0.00519476
-1.21097e-09
0.00519476
1.21937e-09
0.00519476
-1.66747e-09
0.00519476
8.91701e-10
0.00519476
-1.60368e-09
0.00519476
7.57962e-10
0.00519477
-1.7126e-09
0.00519477
6.45168e-10
0.00519477
-1.65104e-09
0.00519477
6.67807e-10
0.00519477
-1.125e-09
0.00519477
1.42236e-09
0.00519477
4.53003e-10
0.00519477
3.74443e-09
0.00519477
3.72461e-09
0.00519477
7.92829e-09
0.00519477
9.80931e-09
0.00519477
1.61434e-08
0.00519477
2.11163e-08
0.00519477
3.1373e-08
0.00519477
4.25612e-08
0.00519477
6.121e-08
0.00519477
8.48599e-08
0.00519477
1.20505e-07
0.00519478
1.70101e-07
0.00519478
2.42348e-07
0.00519478
3.59018e-07
0.00519478
5.29074e-07
0.00519475
9.04033e-07
0.0051947
1.53044e-06
0.00519462
4.17703e-06
0.00519468
1.09866e-05
0.00519521
3.88031e-05
7.72387e-05
0.00513321
0.000870906
0.00518039
0.00048161
0.00518946
0.000132527
0.00519031
4.95115e-06
0.0051898
-8.49898e-06
0.00519031
3.77413e-06
0.00519084
7.91051e-06
0.0051915
9.67112e-06
0.00519203
8.44568e-06
0.0051925
7.3537e-06
0.00519287
6.06932e-06
0.00519318
5.07214e-06
0.00519343
4.19979e-06
0.00519365
3.51135e-06
0.00519382
2.94482e-06
0.00519397
2.49471e-06
0.00519409
2.12282e-06
0.00519419
1.81928e-06
0.00519428
1.56501e-06
0.00519436
1.35508e-06
0.00519442
1.17239e-06
0.00519448
1.02002e-06
0.00519453
8.85576e-07
0.00519457
7.7152e-07
0.0051946
6.68198e-07
0.00519463
5.8292e-07
0.00519465
5.04149e-07
0.00519468
4.38736e-07
0.00519469
3.76712e-07
0.00519471
3.27273e-07
0.00519472
2.78814e-07
0.00519473
2.41989e-07
0.00519474
2.05205e-07
0.00519475
1.78226e-07
0.00519476
1.49863e-07
0.00519476
1.30896e-07
0.00519477
1.08626e-07
0.00519477
9.47739e-08
0.00519477
7.83158e-08
0.00519478
6.9522e-08
0.00519478
5.57573e-08
0.00519478
4.94675e-08
0.00519478
3.89591e-08
0.00519478
3.56924e-08
0.00519479
2.73385e-08
0.00519479
2.53734e-08
0.00519479
1.85472e-08
0.00519479
1.91904e-08
0.00519479
1.26862e-08
0.00519479
1.35913e-08
0.00519479
8.86893e-09
0.00519479
1.02145e-08
0.00519479
4.88284e-09
0.00519479
7.1055e-09
0.00519479
2.751e-09
0.00519479
4.73025e-09
0.00519479
9.27751e-10
0.00519479
3.72433e-09
0.00519479
8.53318e-10
0.00519479
3.75584e-09
0.00519479
3.69704e-10
0.00519479
3.11621e-09
0.00519479
1.46271e-10
0.00519479
2.74734e-09
0.00519479
-7.34052e-10
0.00519479
1.53317e-09
0.00519479
-1.34846e-09
0.00519479
1.14636e-09
0.00519479
-1.76399e-09
0.00519479
7.51729e-10
0.00519479
-1.73771e-09
0.00519479
6.53055e-10
0.00519479
-1.8523e-09
0.00519479
4.72811e-10
0.00519479
-1.85605e-09
0.0051948
4.44671e-10
0.0051948
-1.35596e-09
0.0051948
1.19774e-09
0.0051948
2.19309e-10
0.0051948
3.54273e-09
0.0051948
3.50809e-09
0.0051948
7.62288e-09
0.0051948
9.35506e-09
0.0051948
1.54976e-08
0.0051948
2.01623e-08
0.0051948
2.99595e-08
0.0051948
4.0476e-08
0.0051948
5.8249e-08
0.00519481
8.07179e-08
0.00519481
1.14806e-07
0.00519482
1.6247e-07
0.00519483
2.32755e-07
0.00519484
3.48221e-07
0.00519485
5.1974e-07
0.00519485
9.00659e-07
0.00519485
1.53111e-06
0.00519491
4.12276e-06
0.00519526
1.06323e-05
0.00519682
3.72451e-05
7.37582e-05
0.00512497
0.000745938
0.00517671
0.000429869
0.0051882
0.000121036
0.00518898
4.16829e-06
0.00518833
-7.84627e-06
0.00518886
3.24824e-06
0.00518954
7.22811e-06
0.00519037
8.83782e-06
0.00519107
7.7454e-06
0.00519168
6.74535e-06
0.00519218
5.57461e-06
0.00519259
4.66047e-06
0.00519293
3.86127e-06
0.00519321
3.23009e-06
0.00519344
2.70982e-06
0.00519364
2.29713e-06
0.00519381
1.95611e-06
0.00519395
1.67731e-06
0.00519407
1.44361e-06
0.00519417
1.25092e-06
0.00519426
1.08271e-06
0.00519434
9.4266e-07
0.00519441
8.18924e-07
0.00519446
7.14058e-07
0.00519451
6.18568e-07
0.00519456
5.40126e-07
0.00519459
4.67426e-07
0.00519462
4.07403e-07
0.00519465
3.49739e-07
0.00519467
3.04168e-07
0.00519469
2.59348e-07
0.00519471
2.25204e-07
0.00519472
1.90655e-07
0.00519474
1.66031e-07
0.00519475
1.39343e-07
0.00519476
1.21651e-07
0.00519476
1.0101e-07
0.00519477
8.85636e-08
0.00519477
7.30689e-08
0.00519478
6.51832e-08
0.00519478
5.22223e-08
0.00519478
4.65748e-08
0.00519479
3.65479e-08
0.00519479
3.35658e-08
0.00519479
2.55344e-08
0.00519479
2.39278e-08
0.00519479
1.7229e-08
0.00519479
1.81206e-08
0.0051948
1.18368e-08
0.0051948
1.27801e-08
0.0051948
8.21928e-09
0.0051948
9.86457e-09
0.0051948
4.61655e-09
0.0051948
6.76686e-09
0.0051948
2.49055e-09
0.0051948
4.59287e-09
0.0051948
8.19103e-10
0.0051948
3.51643e-09
0.0051948
6.54493e-10
0.0051948
3.64333e-09
0.0051948
2.90446e-10
0.0051948
3.02656e-09
0.0051948
4.46507e-11
0.0051948
2.67541e-09
0.0051948
-7.75169e-10
0.0051948
1.42501e-09
0.0051948
-1.48392e-09
0.0051948
1.05835e-09
0.0051948
-1.83249e-09
0.0051948
6.27223e-10
0.0051948
-1.8571e-09
0.0051948
5.38435e-10
0.0051948
-1.97992e-09
0.0051948
2.85367e-10
0.0051948
-2.05947e-09
0.0051948
1.98884e-10
0.00519481
-1.59312e-09
0.00519481
9.52531e-10
0.00519481
-4.9935e-11
0.00519481
3.26235e-09
0.00519481
3.19391e-09
0.00519481
7.14969e-09
0.00519481
8.66348e-09
0.00519481
1.44945e-08
0.00519481
1.87338e-08
0.00519481
2.78834e-08
0.00519481
3.74929e-08
0.00519482
5.40099e-08