/*--------------------------------*- C++ -*----------------------------------*\
  =========                 |
  \\      /  F ield         | OpenFOAM: The Open Source CFD Toolbox
   \\    /   O peration     | Website:  https://openfoam.org
    \\  /    A nd           | Version:  7
     \\/     M anipulation  |
\*---------------------------------------------------------------------------*/
FoamFile
{
    version     2.0;
    format      ascii;
    class       volVectorField;
    location    "2.5";
    object      U;
}
// * * * * * * * * * * * * * * * * * * * * * * * * * * * * * * * * * * * * * //

dimensions      [0 1 -1 0 0 0 0];

internalField   nonuniform List<vector> 
4000
(
(0.537561 0.0563971 0)
(0.552164 0.00359855 0)
(0.517048 -0.00176412 0)
(0.522868 -0.00200127 0)
(0.521055 -0.00213076 0)
(0.521988 -0.00203753 0)
(0.521381 -0.00204473 0)
(0.52123 -0.0020349 0)
(0.520887 -0.0020443 0)
(0.520679 -0.00204826 0)
(0.520474 -0.00205405 0)
(0.520319 -0.00205778 0)
(0.520186 -0.0020612 0)
(0.520078 -0.00206374 0)
(0.519987 -0.00206584 0)
(0.519911 -0.00206746 0)
(0.519847 -0.00206879 0)
(0.519792 -0.00206987 0)
(0.519746 -0.00207071 0)
(0.519707 -0.00207141 0)
(0.519673 -0.00207203 0)
(0.519644 -0.00207247 0)
(0.519619 -0.00207287 0)
(0.519598 -0.00207323 0)
(0.51958 -0.0020735 0)
(0.519565 -0.00207372 0)
(0.519551 -0.00207397 0)
(0.51954 -0.00207413 0)
(0.51953 -0.00207427 0)
(0.519522 -0.00207441 0)
(0.519515 -0.00207454 0)
(0.51951 -0.00207461 0)
(0.519505 -0.00207469 0)
(0.519501 -0.00207474 0)
(0.519497 -0.00207481 0)
(0.519494 -0.00207485 0)
(0.519492 -0.00207489 0)
(0.51949 -0.00207491 0)
(0.519488 -0.00207497 0)
(0.519487 -0.00207499 0)
(0.519486 -0.002075 0)
(0.519485 -0.002075 0)
(0.519484 -0.00207504 0)
(0.519483 -0.00207504 0)
(0.519483 -0.00207506 0)
(0.519482 -0.00207504 0)
(0.519482 -0.00207505 0)
(0.519482 -0.00207506 0)
(0.519482 -0.00207508 0)
(0.519481 -0.00207505 0)
(0.519481 -0.00207508 0)
(0.519481 -0.00207508 0)
(0.519481 -0.00207509 0)
(0.519481 -0.00207508 0)
(0.519481 -0.0020751 0)
(0.519481 -0.00207509 0)
(0.519481 -0.0020751 0)
(0.519481 -0.00207509 0)
(0.519481 -0.0020751 0)
(0.519481 -0.00207508 0)
(0.519481 -0.00207509 0)
(0.519481 -0.00207508 0)
(0.519481 -0.00207509 0)
(0.519481 -0.00207508 0)
(0.519481 -0.00207509 0)
(0.519481 -0.00207508 0)
(0.519481 -0.00207509 0)
(0.519481 -0.00207508 0)
(0.519481 -0.00207509 0)
(0.519481 -0.00207508 0)
(0.519481 -0.0020751 0)
(0.519481 -0.00207508 0)
(0.519481 -0.00207509 0)
(0.519481 -0.00207508 0)
(0.519481 -0.00207509 0)
(0.519481 -0.00207508 0)
(0.519481 -0.00207509 0)
(0.519481 -0.00207508 0)
(0.519481 -0.00207509 0)
(0.519481 -0.00207507 0)
(0.519481 -0.00207508 0)
(0.519481 -0.00207506 0)
(0.51948 -0.00207506 0)
(0.51948 -0.00207504 0)
(0.51948 -0.00207503 0)
(0.519479 -0.002075 0)
(0.519478 -0.00207497 0)
(0.519477 -0.00207492 0)
(0.519475 -0.00207485 0)
(0.519473 -0.00207476 0)
(0.51947 -0.00207464 0)
(0.519465 -0.0020745 0)
(0.519459 -0.00207437 0)
(0.519451 -0.00207435 0)
(0.519444 -0.00207465 0)
(0.519436 -0.00207529 0)
(0.519443 -0.00207439 0)
(0.519361 -0.00206119 0)
(0.519229 -0.0020212 0)
(0.518639 -0.00215161 0)
(0.864905 0.128456 0)
(0.911539 0.0160072 0)
(0.861932 0.000987125 0)
(0.871314 -7.11171e-05 0)
(0.867928 -0.000505761 0)
(0.869515 -0.000190693 0)
(0.868556 -0.000202034 0)
(0.868387 -0.000164265 0)
(0.867874 -0.000193796 0)
(0.867578 -0.000206702 0)
(0.867274 -0.000226352 0)
(0.867049 -0.000239331 0)
(0.866852 -0.00025147 0)
(0.866693 -0.000260676 0)
(0.866559 -0.000267962 0)
(0.866447 -0.000273684 0)
(0.866352 -0.000278395 0)
(0.866272 -0.000282298 0)
(0.866204 -0.00028549 0)
(0.866145 -0.000288129 0)
(0.866095 -0.000290521 0)
(0.866052 -0.00029237 0)
(0.866015 -0.00029397 0)
(0.865983 -0.000295425 0)
(0.865955 -0.00029665 0)
(0.865932 -0.000297614 0)
(0.865912 -0.000298637 0)
(0.865895 -0.000299391 0)
(0.86588 -0.000300027 0)
(0.865867 -0.000300621 0)
(0.865857 -0.000301187 0)
(0.865848 -0.00030155 0)
(0.86584 -0.000301925 0)
(0.865834 -0.000302163 0)
(0.865828 -0.000302503 0)
(0.865824 -0.000302695 0)
(0.86582 -0.000302883 0)
(0.865817 -0.000302979 0)
(0.865814 -0.000303219 0)
(0.865812 -0.000303321 0)
(0.86581 -0.000303394 0)
(0.865808 -0.000303425 0)
(0.865807 -0.000303577 0)
(0.865806 -0.000303588 0)
(0.865805 -0.000303663 0)
(0.865804 -0.000303616 0)
(0.865804 -0.000303672 0)
(0.865803 -0.000303718 0)
(0.865803 -0.000303777 0)
(0.865802 -0.000303689 0)
(0.865802 -0.00030379 0)
(0.865802 -0.000303778 0)
(0.865802 -0.000303825 0)
(0.865802 -0.000303793 0)
(0.865801 -0.000303859 0)
(0.865801 -0.00030381 0)
(0.865801 -0.000303858 0)
(0.865801 -0.000303819 0)
(0.865801 -0.000303866 0)
(0.865801 -0.000303802 0)
(0.865801 -0.000303847 0)
(0.865801 -0.000303798 0)
(0.865801 -0.000303845 0)
(0.865801 -0.00030381 0)
(0.865801 -0.000303844 0)
(0.865801 -0.000303798 0)
(0.865801 -0.000303858 0)
(0.865801 -0.000303822 0)
(0.865802 -0.000303854 0)
(0.865802 -0.000303809 0)
(0.865802 -0.000303861 0)
(0.865802 -0.000303821 0)
(0.865802 -0.000303853 0)
(0.865802 -0.000303818 0)
(0.865802 -0.000303853 0)
(0.865802 -0.000303814 0)
(0.865802 -0.000303845 0)
(0.865802 -0.000303806 0)
(0.865802 -0.000303829 0)
(0.865802 -0.000303793 0)
(0.865801 -0.000303807 0)
(0.865801 -0.000303755 0)
(0.865801 -0.000303754 0)
(0.8658 -0.000303684 0)
(0.8658 -0.000303643 0)
(0.865799 -0.000303527 0)
(0.865798 -0.000303421 0)
(0.865796 -0.000303228 0)
(0.865793 -0.000302997 0)
(0.86579 -0.000302643 0)
(0.865784 -0.000302206 0)
(0.865777 -0.000301649 0)
(0.865768 -0.000301044 0)
(0.865756 -0.000300684 0)
(0.865744 -0.000300908 0)
(0.865725 -0.00030146 0)
(0.865719 -0.000293352 0)
(0.865547 -0.000239573 0)
(0.865254 -7.34757e-05 0)
(0.863187 -0.000219209 0)
(0.960307 0.135909 0)
(1.02531 0.0244361 0)
(0.976296 0.00334445 0)
(0.987376 0.000824814 0)
(0.983065 0.000102584 0)
(0.984965 0.000607735 0)
(0.983889 0.000613449 0)
(0.983794 0.000677152 0)
(0.98327 0.000629122 0)
(0.982993 0.000605034 0)
(0.982692 0.000570392 0)
(0.982473 0.000546667 0)
(0.98228 0.000524929 0)
(0.982125 0.000508276 0)
(0.981994 0.000494871 0)
(0.981884 0.000484295 0)
(0.981792 0.000475603 0)
(0.981713 0.000468443 0)
(0.981646 0.000462482 0)
(0.981588 0.000457564 0)
(0.981539 0.000453222 0)
(0.981496 0.000449717 0)
(0.981459 0.000446681 0)
(0.981427 0.000444027 0)
(0.9814 0.000441714 0)
(0.981376 0.000439852 0)
(0.981356 0.000438032 0)
(0.981339 0.000436597 0)
(0.981324 0.000435337 0)
(0.981311 0.000434265 0)
(0.9813 0.000433214 0)
(0.981291 0.000432452 0)
(0.981283 0.000431725 0)
(0.981276 0.000431243 0)
(0.98127 0.000430646 0)
(0.981266 0.000430255 0)
(0.981262 0.000429864 0)
(0.981258 0.000429653 0)
(0.981255 0.000429266 0)
(0.981253 0.00042906 0)
(0.981251 0.000428856 0)
(0.981249 0.000428783 0)
(0.981248 0.00042855 0)
(0.981247 0.000428494 0)
(0.981246 0.00042834 0)
(0.981245 0.000428374 0)
(0.981244 0.000428269 0)
(0.981244 0.000428222 0)
(0.981243 0.000428108 0)
(0.981243 0.000428203 0)
(0.981242 0.000428069 0)
(0.981242 0.000428097 0)
(0.981242 0.000428015 0)
(0.981242 0.000428062 0)
(0.981242 0.000427962 0)
(0.981242 0.000428035 0)
(0.981242 0.00042796 0)
(0.981242 0.000428016 0)
(0.981242 0.00042794 0)
(0.981242 0.000428023 0)
(0.981242 0.000427951 0)
(0.981242 0.000428018 0)
(0.981242 0.000427941 0)
(0.981242 0.000427995 0)
(0.981242 0.00042794 0)
(0.981242 0.000428009 0)
(0.981242 0.000427928 0)
(0.981242 0.000427985 0)
(0.981242 0.000427934 0)
(0.981242 0.000428 0)
(0.981242 0.000427928 0)
(0.981242 0.000427985 0)
(0.981242 0.000427933 0)
(0.981242 0.000427986 0)
(0.981242 0.000427934 0)
(0.981242 0.000427991 0)
(0.981242 0.000427944 0)
(0.981242 0.000428003 0)
(0.981242 0.000427971 0)
(0.981242 0.000428032 0)
(0.981242 0.000428018 0)
(0.981242 0.000428103 0)
(0.981241 0.00042812 0)
(0.981241 0.000428242 0)
(0.98124 0.000428331 0)
(0.981239 0.000428541 0)
(0.981238 0.000428754 0)
(0.981236 0.00042912 0)
(0.981233 0.000429572 0)
(0.98123 0.000430251 0)
(0.981224 0.000431112 0)
(0.981217 0.000432218 0)
(0.981208 0.000433509 0)
(0.981195 0.000434518 0)
(0.98118 0.000435171 0)
(0.981154 0.000436343 0)
(0.981134 0.000458764 0)
(0.980911 0.000569048 0)
(0.980544 0.00094305 0)
(0.977596 0.00117799 0)
(0.984959 0.123302 0)
(1.05948 0.0286635 0)
(1.01373 0.00469344 0)
(1.02588 0.000701611 0)
(1.02097 -0.000185041 0)
(1.02308 0.000442852 0)
(1.02196 0.000480846 0)
(1.02196 0.00056273 0)
(1.02148 0.000501012 0)
(1.02125 0.000465633 0)
(1.02099 0.000417413 0)
(1.0208 0.000383119 0)
(1.02063 0.000352007 0)
(1.0205 0.000327674 0)
(1.02038 0.000308488 0)
(1.02029 0.000293514 0)
(1.02021 0.000281219 0)
(1.02014 0.000271135 0)
(1.02008 0.000262697 0)
(1.02003 0.000255725 0)
(1.01999 0.000249653 0)
(1.01995 0.000244681 0)
(1.01992 0.000240338 0)
(1.01989 0.000236588 0)
(1.01987 0.000233287 0)
(1.01985 0.000230591 0)
(1.01983 0.000228043 0)
(1.01981 0.000225958 0)
(1.0198 0.000224111 0)
(1.01979 0.000222613 0)
(1.01978 0.000221144 0)
(1.01977 0.000220009 0)
(1.01976 0.000218942 0)
(1.01975 0.000218246 0)
(1.01975 0.000217439 0)
(1.01974 0.000216846 0)
(1.01974 0.00021625 0)
(1.01974 0.00021593 0)
(1.01973 0.000215423 0)
(1.01973 0.000215119 0)
(1.01973 0.00021478 0)
(1.01973 0.000214657 0)
(1.01973 0.000214365 0)
(1.01973 0.000214266 0)
(1.01973 0.000214035 0)
(1.01972 0.00021405 0)
(1.01972 0.000213905 0)
(1.01972 0.000213856 0)
(1.01972 0.000213687 0)
(1.01972 0.000213783 0)
(1.01972 0.000213626 0)
(1.01972 0.000213655 0)
(1.01972 0.00021354 0)
(1.01972 0.000213598 0)
(1.01972 0.000213469 0)
(1.01972 0.000213559 0)
(1.01972 0.000213462 0)
(1.01972 0.000213531 0)
(1.01972 0.000213436 0)
(1.01972 0.000213532 0)
(1.01972 0.000213441 0)
(1.01972 0.00021352 0)
(1.01972 0.000213421 0)
(1.01972 0.000213489 0)
(1.01972 0.000213414 0)
(1.01972 0.000213501 0)
(1.01972 0.000213405 0)
(1.01972 0.000213475 0)
(1.01972 0.00021341 0)
(1.01972 0.000213493 0)
(1.01972 0.000213406 0)
(1.01972 0.000213474 0)
(1.01972 0.000213407 0)
(1.01972 0.000213475 0)
(1.01972 0.000213409 0)
(1.01972 0.000213479 0)
(1.01972 0.000213422 0)
(1.01972 0.000213497 0)
(1.01972 0.000213462 0)
(1.01972 0.000213544 0)
(1.01972 0.000213531 0)
(1.01972 0.000213648 0)
(1.01972 0.000213684 0)
(1.01972 0.000213855 0)
(1.01972 0.000213992 0)
(1.01972 0.000214291 0)
(1.01972 0.000214605 0)
(1.01972 0.000215131 0)
(1.01971 0.000215795 0)
(1.01971 0.00021678 0)
(1.01971 0.000218053 0)
(1.0197 0.000219708 0)
(1.01969 0.000221754 0)
(1.01968 0.000223646 0)
(1.01966 0.000226045 0)
(1.01963 0.000230495 0)
(1.0196 0.000271499 0)
(1.01936 0.00044409 0)
(1.01899 0.0010496 0)
(1.01589 0.00176925 0)
(0.988567 0.109984 0)
(1.06794 0.0309717 0)
(1.02558 0.00569981 0)
(1.03848 0.000549495 0)
(1.03315 -0.000406162 0)
(1.03543 0.000298293 0)
(1.03429 0.000370082 0)
(1.0344 0.00046314 0)
(1.03397 0.000392154 0)
(1.03381 0.000347402 0)
(1.03358 0.000288819 0)
(1.03344 0.000246261 0)
(1.0333 0.000208087 0)
(1.03319 0.000178141 0)
(1.0331 0.000154353 0)
(1.03302 0.000135697 0)
(1.03296 0.000120346 0)
(1.0329 0.000107775 0)
(1.03285 9.72333e-05 0)
(1.03281 8.84926e-05 0)
(1.03277 8.09015e-05 0)
(1.03274 7.46196e-05 0)
(1.03272 6.90719e-05 0)
(1.03269 6.42776e-05 0)
(1.03267 6.00116e-05 0)
(1.03266 5.6452e-05 0)
(1.03264 5.31085e-05 0)
(1.03263 5.03061e-05 0)
(1.03262 4.79423e-05 0)
(1.03261 4.60665e-05 0)
(1.0326 4.42577e-05 0)
(1.03259 4.28243e-05 0)
(1.03258 4.1455e-05 0)
(1.03258 4.05559e-05 0)
(1.03257 3.95783e-05 0)
(1.03257 3.88203e-05 0)
(1.03257 3.80338e-05 0)
(1.03256 3.76064e-05 0)
(1.03256 3.69975e-05 0)
(1.03256 3.66135e-05 0)
(1.03256 3.61548e-05 0)
(1.03256 3.59792e-05 0)
(1.03255 3.56346e-05 0)
(1.03255 3.54989e-05 0)
(1.03255 3.52052e-05 0)
(1.03255 3.51945e-05 0)
(1.03255 3.50128e-05 0)
(1.03255 3.49695e-05 0)
(1.03255 3.47484e-05 0)
(1.03255 3.484e-05 0)
(1.03255 3.46655e-05 0)
(1.03255 3.46888e-05 0)
(1.03255 3.45399e-05 0)
(1.03255 3.46124e-05 0)
(1.03255 3.44562e-05 0)
(1.03255 3.45547e-05 0)
(1.03255 3.44401e-05 0)
(1.03255 3.4524e-05 0)
(1.03255 3.44144e-05 0)
(1.03255 3.45216e-05 0)
(1.03255 3.44136e-05 0)
(1.03255 3.45057e-05 0)
(1.03255 3.43883e-05 0)
(1.03255 3.44688e-05 0)
(1.03255 3.43752e-05 0)
(1.03255 3.44761e-05 0)
(1.03255 3.43688e-05 0)
(1.03255 3.44486e-05 0)
(1.03255 3.43678e-05 0)
(1.03255 3.44656e-05 0)
(1.03255 3.43665e-05 0)
(1.03255 3.44449e-05 0)
(1.03255 3.43652e-05 0)
(1.03255 3.44465e-05 0)
(1.03255 3.43695e-05 0)
(1.03255 3.44515e-05 0)
(1.03255 3.43862e-05 0)
(1.03255 3.44739e-05 0)
(1.03255 3.44354e-05 0)
(1.03255 3.4537e-05 0)
(1.03255 3.4526e-05 0)
(1.03255 3.46686e-05 0)
(1.03255 3.47235e-05 0)
(1.03255 3.49367e-05 0)
(1.03255 3.51144e-05 0)
(1.03255 3.54864e-05 0)
(1.03255 3.58909e-05 0)
(1.03254 3.65522e-05 0)
(1.03254 3.7392e-05 0)
(1.03254 3.86358e-05 0)
(1.03254 4.02642e-05 0)
(1.03253 4.24114e-05 0)
(1.03252 4.5209e-05 0)
(1.03251 4.81421e-05 0)
(1.0325 5.31524e-05 0)
(1.03246 6.23071e-05 0)
(1.03242 0.000123558 0)
(1.03218 0.000349217 0)
(1.03186 0.00116816 0)
(1.02902 0.002297 0)
(0.986394 0.0983073 0)
(1.06821 0.0321986 0)
(1.02896 0.00652575 0)
(1.04242 0.000505091 0)
(1.03679 -0.00047018 0)
(1.0392 0.000278574 0)
(1.03807 0.000381714 0)
(1.03828 0.000480496 0)
(1.0379 0.000404464 0)
(1.0378 0.000353169 0)
(1.03762 0.000288186 0)
(1.03751 0.000240612 0)
(1.03741 0.00019868 0)
(1.03733 0.000166112 0)
(1.03725 0.000139109 0)
(1.0372 0.000117649 0)
(1.03715 9.99504e-05 0)
(1.0371 8.54877e-05 0)
(1.03707 7.33841e-05 0)
(1.03703 6.33471e-05 0)
(1.03701 5.46366e-05 0)
(1.03698 4.73963e-05 0)
(1.03696 4.0999e-05 0)
(1.03694 3.55008e-05 0)
(1.03693 3.05959e-05 0)
(1.03691 2.64723e-05 0)
(1.0369 2.26494e-05 0)
(1.03689 1.9439e-05 0)
(1.03688 1.66581e-05 0)
(1.03687 1.44556e-05 0)
(1.03686 1.23728e-05 0)
(1.03686 1.07153e-05 0)
(1.03685 9.08667e-06 0)
(1.03685 7.99008e-06 0)
(1.03684 6.86641e-06 0)
(1.03684 5.98043e-06 0)
(1.03684 5.01999e-06 0)
(1.03684 4.47976e-06 0)
(1.03683 3.77332e-06 0)
(1.03683 3.32156e-06 0)
(1.03683 2.74314e-06 0)
(1.03683 2.5011e-06 0)
(1.03683 2.089e-06 0)
(1.03683 1.9187e-06 0)
(1.03683 1.56651e-06 0)
(1.03683 1.52813e-06 0)
(1.03683 1.30994e-06 0)
(1.03683 1.27613e-06 0)
(1.03683 1.01265e-06 0)
(1.03682 1.09469e-06 0)
(1.03682 9.0634e-07 0)
(1.03682 9.23785e-07 0)
(1.03682 7.43968e-07 0)
(1.03682 8.30806e-07 0)
(1.03682 6.53067e-07 0)
(1.03682 7.54681e-07 0)
(1.03682 6.24092e-07 0)
(1.03682 7.21959e-07 0)
(1.03682 6.02948e-07 0)
(1.03682 7.18231e-07 0)
(1.03682 5.95195e-07 0)
(1.03682 6.9826e-07 0)
(1.03682 5.68424e-07 0)
(1.03682 6.59943e-07 0)
(1.03682 5.48218e-07 0)
(1.03682 6.58233e-07 0)
(1.03682 5.42573e-07 0)
(1.03682 6.30813e-07 0)
(1.03682 5.3513e-07 0)
(1.03682 6.44291e-07 0)
(1.03682 5.37115e-07 0)
(1.03682 6.23522e-07 0)
(1.03682 5.33166e-07 0)
(1.03682 6.25738e-07 0)
(1.03682 5.39902e-07 0)
(1.03682 6.31211e-07 0)
(1.03682 5.59976e-07 0)
(1.03682 6.57979e-07 0)
(1.03682 6.16382e-07 0)
(1.03682 7.34564e-07 0)
(1.03682 7.2545e-07 0)
(1.03682 8.8923e-07 0)
(1.03682 9.59837e-07 0)
(1.03682 1.20797e-06 0)
(1.03682 1.41773e-06 0)
(1.03682 1.84921e-06 0)
(1.03682 2.35397e-06 0)
(1.03682 3.15842e-06 0)
(1.03682 4.16569e-06 0)
(1.03682 5.64015e-06 0)
(1.03681 7.58082e-06 0)
(1.03681 1.01714e-05 0)
(1.0368 1.37017e-05 0)
(1.03679 1.7756e-05 0)
(1.03678 2.54578e-05 0)
(1.03674 3.93226e-05 0)
(1.0367 0.000119312 0)
(1.03647 0.000383906 0)
(1.03621 0.00139853 0)
(1.03382 0.0028468 0)
(0.9831 0.0877039 0)
(1.0661 0.0325123 0)
(1.02959 0.00711787 0)
(1.04346 0.000482343 0)
(1.03762 -0.000482312 0)
(1.04014 0.000284699 0)
(1.03901 0.000417697 0)
(1.03931 0.000520156 0)
(1.03899 0.000441321 0)
(1.03895 0.000384897 0)
(1.03881 0.000314886 0)
(1.03874 0.000262977 0)
(1.03867 0.000217452 0)
(1.03861 0.00018204 0)
(1.03856 0.000152609 0)
(1.03852 0.000129192 0)
(1.03848 0.000109871 0)
(1.03845 9.41155e-05 0)
(1.03843 8.09846e-05 0)
(1.03841 7.01241e-05 0)
(1.03839 6.06975e-05 0)
(1.03837 5.2864e-05 0)
(1.03835 4.59915e-05 0)
(1.03834 4.0138e-05 0)
(1.03833 3.4935e-05 0)
(1.03832 3.05776e-05 0)
(1.03831 2.65998e-05 0)
(1.0383 2.33004e-05 0)
(1.03829 2.02247e-05 0)
(1.03829 1.77558e-05 0)
(1.03828 1.54496e-05 0)
(1.03828 1.36358e-05 0)
(1.03827 1.18101e-05 0)
(1.03827 1.05358e-05 0)
(1.03827 9.28088e-06 0)
(1.03826 8.30483e-06 0)
(1.03826 7.20214e-06 0)
(1.03826 6.55449e-06 0)
(1.03826 5.75397e-06 0)
(1.03826 5.24662e-06 0)
(1.03825 4.56465e-06 0)
(1.03825 4.25392e-06 0)
(1.03825 3.77708e-06 0)
(1.03825 3.59064e-06 0)
(1.03825 3.19831e-06 0)
(1.03825 3.1343e-06 0)
(1.03825 2.88076e-06 0)
(1.03825 2.85547e-06 0)
(1.03825 2.56134e-06 0)
(1.03825 2.63417e-06 0)
(1.03825 2.43164e-06 0)
(1.03825 2.44619e-06 0)
(1.03825 2.24024e-06 0)
(1.03825 2.33933e-06 0)
(1.03825 2.14403e-06 0)
(1.03825 2.24507e-06 0)
(1.03825 2.10025e-06 0)
(1.03825 2.21122e-06 0)
(1.03825 2.0845e-06 0)
(1.03825 2.20703e-06 0)
(1.03825 2.07053e-06 0)
(1.03825 2.18391e-06 0)
(1.03825 2.04596e-06 0)
(1.03825 2.14685e-06 0)
(1.03825 2.01892e-06 0)
(1.03825 2.13508e-06 0)
(1.03825 2.01187e-06 0)
(1.03825 2.10802e-06 0)
(1.03825 1.99862e-06 0)
(1.03825 2.11617e-06 0)
(1.03825 2.00252e-06 0)
(1.03825 2.09683e-06 0)
(1.03825 1.99743e-06 0)
(1.03825 2.0991e-06 0)
(1.03825 2.00578e-06 0)
(1.03825 2.10499e-06 0)
(1.03825 2.02866e-06 0)
(1.03825 2.13555e-06 0)
(1.03825 2.09093e-06 0)
(1.03825 2.22302e-06 0)
(1.03825 2.21583e-06 0)
(1.03825 2.39627e-06 0)
(1.03825 2.479e-06 0)
(1.03825 2.75478e-06 0)
(1.03825 2.9887e-06 0)
(1.03825 3.46728e-06 0)
(1.03825 4.03191e-06 0)
(1.03825 4.97496e-06 0)
(1.03825 6.13329e-06 0)
(1.03824 7.80543e-06 0)
(1.03824 1.00107e-05 0)
(1.03824 1.29888e-05 0)
(1.03823 1.72065e-05 0)
(1.03822 2.23858e-05 0)
(1.03821 3.25865e-05 0)
(1.03818 5.0669e-05 0)
(1.03814 0.000147063 0)
(1.03794 0.00044616 0)
(1.03774 0.0016257 0)
(1.03587 0.00331291 0)
(0.980017 0.0779994 0)
(1.06348 0.03206 0)
(1.02937 0.00746271 0)
(1.04355 0.00044751 0)
(1.03754 -0.000485777 0)
(1.04015 0.000281022 0)
(1.03903 0.000440562 0)
(1.03942 0.000544552 0)
(1.03915 0.00046519 0)
(1.03916 0.00040539 0)
(1.03907 0.000332288 0)
(1.03903 0.000277423 0)
(1.03898 0.000229352 0)
(1.03895 0.000191818 0)
(1.03892 0.00016078 0)
(1.0389 0.000136097 0)
(1.03888 0.000115734 0)
(1.03886 9.91322e-05 0)
(1.03884 8.53081e-05 0)
(1.03883 7.38916e-05 0)
(1.03881 6.39612e-05 0)
(1.0388 5.56838e-05 0)
(1.03879 4.84468e-05 0)
(1.03878 4.23052e-05 0)
(1.03878 3.68265e-05 0)
(1.03877 3.22285e-05 0)
(1.03876 2.80364e-05 0)
(1.03876 2.45819e-05 0)
(1.03875 2.13205e-05 0)
(1.03875 1.86703e-05 0)
(1.03875 1.61982e-05 0)
(1.03874 1.42899e-05 0)
(1.03874 1.23464e-05 0)
(1.03874 1.09429e-05 0)
(1.03874 9.58983e-06 0)
(1.03873 8.57172e-06 0)
(1.03873 7.38606e-06 0)
(1.03873 6.667e-06 0)
(1.03873 5.81588e-06 0)
(1.03873 5.28984e-06 0)
(1.03873 4.56264e-06 0)
(1.03873 4.21779e-06 0)
(1.03873 3.70703e-06 0)
(1.03873 3.51634e-06 0)
(1.03873 3.0844e-06 0)
(1.03873 2.99079e-06 0)
(1.03873 2.70114e-06 0)
(1.03872 2.68454e-06 0)
(1.03872 2.36854e-06 0)
(1.03872 2.43249e-06 0)
(1.03872 2.21565e-06 0)
(1.03872 2.23214e-06 0)
(1.03872 2.0031e-06 0)
(1.03872 2.11166e-06 0)
(1.03872 1.90342e-06 0)
(1.03872 2.0015e-06 0)
(1.03872 1.84412e-06 0)
(1.03872 1.96676e-06 0)
(1.03872 1.83344e-06 0)
(1.03872 1.96183e-06 0)
(1.03872 1.81405e-06 0)
(1.03872 1.93574e-06 0)
(1.03872 1.79309e-06 0)
(1.03872 1.90183e-06 0)
(1.03872 1.7597e-06 0)
(1.03872 1.87946e-06 0)
(1.03872 1.74987e-06 0)
(1.03872 1.85323e-06 0)
(1.03872 1.73206e-06 0)
(1.03872 1.85536e-06 0)
(1.03872 1.73691e-06 0)
(1.03872 1.83843e-06 0)
(1.03872 1.73158e-06 0)
(1.03872 1.84015e-06 0)
(1.03872 1.74055e-06 0)
(1.03872 1.84604e-06 0)
(1.03872 1.76542e-06 0)
(1.03872 1.87962e-06 0)
(1.03872 1.83273e-06 0)
(1.03872 1.976e-06 0)
(1.03872 1.97101e-06 0)
(1.03872 2.1658e-06 0)
(1.03872 2.25786e-06 0)
(1.03872 2.5556e-06 0)
(1.03872 2.80714e-06 0)
(1.03872 3.33921e-06 0)
(1.03872 3.93255e-06 0)
(1.03872 4.92681e-06 0)
(1.03872 6.15482e-06 0)
(1.03872 7.93831e-06 0)
(1.03872 1.03195e-05 0)
(1.03872 1.3592e-05 0)
(1.03871 1.84002e-05 0)
(1.03871 2.46389e-05 0)
(1.03869 3.74595e-05 0)
(1.03867 5.98382e-05 0)
(1.03863 0.00017064 0)
(1.03847 0.000496069 0)
(1.03834 0.00179849 0)
(1.03701 0.00365053 0)
(0.977434 0.0691589 0)
(1.06096 0.0310028 0)
(1.02892 0.00758536 0)
(1.04333 0.000403809 0)
(1.0372 -0.000484325 0)
(1.03988 0.000267891 0)
(1.03877 0.00044912 0)
(1.03923 0.000552541 0)
(1.039 0.000474738 0)
(1.03907 0.000413403 0)
(1.03901 0.000339322 0)
(1.03901 0.000283169 0)
(1.03899 0.000233993 0)
(1.03898 0.000195484 0)
(1.03897 0.000163721 0)
(1.03896 0.000138453 0)
(1.03895 0.000117615 0)
(1.03895 0.000100625 0)
(1.03894 8.64574e-05 0)
(1.03893 7.47678e-05 0)
(1.03893 6.45925e-05 0)
(1.03892 5.60844e-05 0)
(1.03892 4.86489e-05 0)
(1.03891 4.23496e-05 0)
(1.03891 3.67029e-05 0)
(1.03891 3.19609e-05 0)
(1.0389 2.76238e-05 0)
(1.0389 2.40557e-05 0)
(1.0389 2.07036e-05 0)
(1.0389 1.79639e-05 0)
(1.0389 1.53878e-05 0)
(1.03889 1.3431e-05 0)
(1.03889 1.14395e-05 0)
(1.03889 9.96516e-06 0)
(1.03889 8.54683e-06 0)
(1.03889 7.52104e-06 0)
(1.03889 6.30563e-06 0)
(1.03889 5.55276e-06 0)
(1.03889 4.68908e-06 0)
(1.03889 4.17355e-06 0)
(1.03888 3.44605e-06 0)
(1.03888 3.09778e-06 0)
(1.03888 2.57466e-06 0)
(1.03888 2.38341e-06 0)
(1.03888 1.93333e-06 0)
(1.03888 1.82245e-06 0)
(1.03888 1.5051e-06 0)
(1.03888 1.49752e-06 0)
(1.03888 1.16372e-06 0)
(1.03888 1.21997e-06 0)
(1.03888 9.83935e-07 0)
(1.03888 1.00828e-06 0)
(1.03888 7.5346e-07 0)
(1.03888 8.69425e-07 0)
(1.03888 6.50733e-07 0)
(1.03888 7.45631e-07 0)
(1.03888 5.76807e-07 0)
(1.03888 7.09187e-07 0)
(1.03888 5.70131e-07 0)
(1.03888 7.03509e-07 0)
(1.03888 5.46592e-07 0)
(1.03888 6.7491e-07 0)
(1.03888 5.29213e-07 0)
(1.03888 6.45058e-07 0)
(1.03888 4.90456e-07 0)
(1.03888 6.11989e-07 0)
(1.03888 4.76947e-07 0)
(1.03888 5.86812e-07 0)
(1.03888 4.56062e-07 0)
(1.03888 5.82911e-07 0)
(1.03888 4.61117e-07 0)
(1.03888 5.68793e-07 0)
(1.03888 4.55898e-07 0)
(1.03888 5.69381e-07 0)
(1.03888 4.64234e-07 0)
(1.03888 5.74865e-07 0)
(1.03888 4.90379e-07 0)
(1.03888 6.10715e-07 0)
(1.03888 5.62526e-07 0)
(1.03888 7.14641e-07 0)
(1.03888 7.12024e-07 0)
(1.03888 9.25146e-07 0)
(1.03888 1.02619e-06 0)
(1.03888 1.34454e-06 0)
(1.03888 1.60791e-06 0)
(1.03888 2.16094e-06 0)
(1.03888 2.76788e-06 0)
(1.03888 3.74275e-06 0)
(1.03888 4.97166e-06 0)
(1.03888 6.7905e-06 0)
(1.03888 9.2641e-06 0)
(1.03888 1.27355e-05 0)
(1.03888 1.80133e-05 0)
(1.03887 2.51744e-05 0)
(1.03886 4.0372e-05 0)
(1.03884 6.65348e-05 0)
(1.03881 0.000188543 0)
(1.0387 0.00053036 0)
(1.03863 0.00191149 0)
(1.03784 0.00385969 0)
(0.97534 0.0610858 0)
(1.0587 0.0294675 0)
(1.02846 0.00751457 0)
(1.04303 0.000357653 0)
(1.03681 -0.000476332 0)
(1.03953 0.000249127 0)
(1.03843 0.000446219 0)
(1.03896 0.000547252 0)
(1.03878 0.000472695 0)
(1.03889 0.000411502 0)
(1.03887 0.000338313 0)
(1.0389 0.000282385 0)
(1.0389 0.000233418 0)
(1.03891 0.000194976 0)
(1.03892 0.000163311 0)
(1.03892 0.000138109 0)
(1.03893 0.000117328 0)
(1.03893 0.000100385 0)
(1.03893 8.6228e-05 0)
(1.03894 7.45485e-05 0)
(1.03894 6.43904e-05 0)
(1.03894 5.5886e-05 0)
(1.03894 4.84393e-05 0)
(1.03894 4.21341e-05 0)
(1.03894 3.64629e-05 0)
(1.03894 3.17135e-05 0)
(1.03894 2.73557e-05 0)
(1.03894 2.37623e-05 0)
(1.03894 2.03963e-05 0)
(1.03894 1.76485e-05 0)
(1.03894 1.50305e-05 0)
(1.03894 1.30569e-05 0)
(1.03894 1.10637e-05 0)
(1.03894 9.56809e-06 0)
(1.03894 8.10752e-06 0)
(1.03894 7.08551e-06 0)
(1.03894 5.86702e-06 0)
(1.03894 5.10109e-06 0)
(1.03894 4.23242e-06 0)
(1.03894 3.72982e-06 0)
(1.03894 3.00355e-06 0)
(1.03894 2.65531e-06 0)
(1.03894 2.12624e-06 0)
(1.03894 1.94421e-06 0)
(1.03894 1.50784e-06 0)
(1.03894 1.39605e-06 0)
(1.03894 1.06543e-06 0)
(1.03894 1.06853e-06 0)
(1.03893 7.28404e-07 0)
(1.03893 7.78558e-07 0)
(1.03893 5.33926e-07 0)
(1.03893 5.68527e-07 0)
(1.03893 3.01051e-07 0)
(1.03893 4.19233e-07 0)
(1.03893 1.95748e-07 0)
(1.03893 2.89236e-07 0)
(1.03893 1.09604e-07 0)
(1.03893 2.4953e-07 0)
(1.03893 1.0444e-07 0)
(1.03893 2.43839e-07 0)
(1.03893 7.82518e-08 0)
(1.03893 2.13242e-07 0)
(1.03893 6.3647e-08 0)
(1.03894 1.87422e-07 0)
(1.03894 2.10376e-08 0)
(1.03894 1.44025e-07 0)
(1.03894 3.76717e-09 0)
(1.03894 1.19851e-07 0)
(1.03894 -1.82801e-08 0)
(1.03894 1.1008e-07 0)
(1.03894 -1.34244e-08 0)
(1.03894 9.84086e-08 0)
(1.03894 -1.87036e-08 0)
(1.03894 9.75355e-08 0)
(1.03894 -1.28193e-08 0)
(1.03894 1.02522e-07 0)
(1.03894 1.35389e-08 0)
(1.03894 1.40374e-07 0)
(1.03894 9.16006e-08 0)
(1.03894 2.50999e-07 0)
(1.03894 2.49914e-07 0)
(1.03894 4.69223e-07 0)
(1.03894 5.72174e-07 0)
(1.03894 8.98213e-07 0)
(1.03894 1.16218e-06 0)
(1.03894 1.69535e-06 0)
(1.03894 2.28262e-06 0)
(1.03894 3.24202e-06 0)
(1.03894 4.46323e-06 0)
(1.03894 6.29107e-06 0)
(1.03893 8.80887e-06 0)
(1.03893 1.24039e-05 0)
(1.03893 1.80257e-05 0)
(1.03893 2.59213e-05 0)
(1.03892 4.30247e-05 0)
(1.03891 7.20949e-05 0)
(1.03889 0.000201474 0)
(1.03883 0.000550009 0)
(1.03882 0.00196697 0)
(1.03856 0.00394859 0)
(0.97366 0.0536592 0)
(1.05672 0.0275479 0)
(1.02804 0.00727425 0)
(1.04273 0.000312093 0)
(1.03644 -0.000461469 0)
(1.03919 0.000226584 0)
(1.0381 0.00043307 0)
(1.03868 0.000530106 0)
(1.03854 0.000460115 0)
(1.03869 0.000400551 0)
(1.0387 0.000329867 0)
(1.03876 0.000275475 0)
(1.03879 0.000227863 0)
(1.03882 0.000190395 0)
(1.03884 0.00015956 0)
(1.03886 0.000135023 0)
(1.03887 0.000114779 0)
(1.03889 9.82727e-05 0)
(1.0389 8.44592e-05 0)
(1.03891 7.30582e-05 0)
(1.03891 6.31496e-05 0)
(1.03892 5.48599e-05 0)
(1.03893 4.7578e-05 0)
(1.03893 4.14087e-05 0)
(1.03893 3.58458e-05 0)
(1.03894 3.12109e-05 0)
(1.03894 2.69462e-05 0)
(1.03894 2.34162e-05 0)
(1.03894 2.01035e-05 0)
(1.03895 1.74187e-05 0)
(1.03895 1.48263e-05 0)
(1.03895 1.28709e-05 0)
(1.03895 1.0912e-05 0)
(1.03895 9.44187e-06 0)
(1.03895 7.96889e-06 0)
(1.03895 6.96138e-06 0)
(1.03895 5.76365e-06 0)
(1.03895 5.00688e-06 0)
(1.03895 4.14232e-06 0)
(1.03895 3.65576e-06 0)
(1.03895 2.93331e-06 0)
(1.03895 2.5893e-06 0)
(1.03895 2.05309e-06 0)
(1.03895 1.87699e-06 0)
(1.03895 1.44608e-06 0)
(1.03895 1.33512e-06 0)
(1.03895 9.968e-07 0)
(1.03895 1.0116e-06 0)
(1.03895 6.76166e-07 0)
(1.03895 7.2229e-07 0)
(1.03895 4.817e-07 0)
(1.03895 5.27507e-07 0)
(1.03895 2.6149e-07 0)
(1.03895 3.77076e-07 0)
(1.03895 1.54814e-07 0)
(1.03895 2.49005e-07 0)
(1.03895 6.20565e-08 0)
(1.03895 2.05033e-07 0)
(1.03895 5.79102e-08 0)
(1.03895 2.0105e-07 0)
(1.03895 3.05263e-08 0)
(1.03895 1.69297e-07 0)
(1.03895 1.78161e-08 0)
(1.03895 1.47001e-07 0)
(1.03895 -2.64749e-08 0)
(1.03895 9.48295e-08 0)
(1.03895 -4.84248e-08 0)
(1.03895 7.2167e-08 0)
(1.03895 -7.07424e-08 0)
(1.03895 5.74673e-08 0)
(1.03895 -6.6778e-08 0)
(1.03895 4.83171e-08 0)
(1.03895 -7.21599e-08 0)
(1.03895 4.51889e-08 0)
(1.03895 -6.86447e-08 0)
(1.03895 4.84492e-08 0)
(1.03895 -4.31926e-08 0)
(1.03895 8.70988e-08 0)
(1.03895 3.83128e-08 0)
(1.03895 2.0245e-07 0)
(1.03895 2.01696e-07 0)
(1.03895 4.13793e-07 0)
(1.03895 5.11014e-07 0)
(1.03895 8.31151e-07 0)
(1.03895 1.0861e-06 0)
(1.03895 1.60576e-06 0)
(1.03895 2.17608e-06 0)
(1.03895 3.12269e-06 0)
(1.03895 4.32618e-06 0)
(1.03895 6.13638e-06 0)
(1.03895 8.64866e-06 0)
(1.03896 1.2286e-05 0)
(1.03896 1.81048e-05 0)
(1.03896 2.64979e-05 0)
(1.03895 4.4918e-05 0)
(1.03895 7.58671e-05 0)
(1.03893 0.000208571 0)
(1.03892 0.000554709 0)
(1.03898 0.0019668 0)
(1.03921 0.00392527 0)
(0.972313 0.0467722 0)
(1.055 0.0253165 0)
(1.02768 0.00688519 0)
(1.04245 0.000268537 0)
(1.0361 -0.000439641 0)
(1.03887 0.000201584 0)
(1.03778 0.000410609 0)
(1.03842 0.000502159 0)
(1.03831 0.000437752 0)
(1.0385 0.000381134 0)
(1.03854 0.000314365 0)
(1.03862 0.000262661 0)
(1.03867 0.000217421 0)
(1.03872 0.000181748 0)
(1.03875 0.000152394 0)
(1.03878 0.000129057 0)
(1.03881 0.000109786 0)
(1.03883 9.40628e-05 0)
(1.03885 8.08953e-05 0)
(1.03887 7.00244e-05 0)
(1.03888 6.05704e-05 0)
(1.03889 5.2675e-05 0)
(1.0389 4.57191e-05 0)
(1.03891 3.98204e-05 0)
(1.03892 3.44864e-05 0)
(1.03892 3.00679e-05 0)
(1.03893 2.59922e-05 0)
(1.03893 2.26105e-05 0)
(1.03894 1.94172e-05 0)
(1.03894 1.68552e-05 0)
(1.03894 1.43567e-05 0)
(1.03895 1.24629e-05 0)
(1.03895 1.05713e-05 0)
(1.03895 9.16943e-06 0)
(1.03895 7.72208e-06 0)
(1.03895 6.74649e-06 0)
(1.03895 5.59618e-06 0)
(1.03895 4.87484e-06 0)
(1.03895 4.03198e-06 0)
(1.03896 3.57217e-06 0)
(1.03896 2.86737e-06 0)
(1.03896 2.53914e-06 0)
(1.03896 2.00648e-06 0)
(1.03896 1.83709e-06 0)
(1.03896 1.41252e-06 0)
(1.03896 1.30802e-06 0)
(1.03896 9.65902e-07 0)
(1.03896 9.92115e-07 0)
(1.03896 6.62401e-07 0)
(1.03896 7.0691e-07 0)
(1.03896 4.69027e-07 0)
(1.03896 5.28497e-07 0)
(1.03896 2.61743e-07 0)
(1.03896 3.74339e-07 0)
(1.03896 1.54424e-07 0)
(1.03896 2.51347e-07 0)
(1.03896 6.15822e-08 0)
(1.03896 2.02939e-07 0)
(1.03896 5.78927e-08 0)
(1.03896 2.02506e-07 0)
(1.03896 3.17848e-08 0)
(1.03896 1.70551e-07 0)
(1.03896 1.99348e-08 0)
(1.03896 1.50915e-07 0)
(1.03896 -2.39393e-08 0)
(1.03896 9.24946e-08 0)
(1.03896 -5.16131e-08 0)
(1.03896 7.17296e-08 0)
(1.03896 -7.33424e-08 0)
(1.03896 5.34542e-08 0)
(1.03896 -7.10803e-08 0)
(1.03896 4.68045e-08 0)
(1.03896 -7.65513e-08 0)
(1.03896 4.04286e-08 0)
(1.03896 -7.50596e-08 0)
(1.03896 4.07143e-08 0)
(1.03896 -5.08115e-08 0)
(1.03896 7.89774e-08 0)
(1.03896 3.01917e-08 0)
(1.03896 1.96307e-07 0)
(1.03896 1.95203e-07 0)
(1.03896 4.03119e-07 0)
(1.03896 4.9391e-07 0)
(1.03896 8.06521e-07 0)
(1.03896 1.04868e-06 0)
(1.03896 1.55155e-06 0)
(1.03896 2.09691e-06 0)
(1.03896 3.01208e-06 0)
(1.03896 4.17169e-06 0)
(1.03896 5.92495e-06 0)
(1.03896 8.37168e-06 0)
(1.03896 1.19589e-05 0)
(1.03897 1.78065e-05 0)
(1.03897 2.64215e-05 0)
(1.03897 4.54932e-05 0)
(1.03897 7.72136e-05 0)
(1.03897 0.000209162 0)
(1.03901 0.000544299 0)
(1.03912 0.00191357 0)
(1.03982 0.00379832 0)
(0.971234 0.0403353 0)
(1.05354 0.0228326 0)
(1.02737 0.00636649 0)
(1.0422 0.000227754 0)
(1.03581 -0.000410624 0)
(1.03858 0.000175389 0)
(1.0375 0.000379987 0)
(1.03818 0.000464646 0)
(1.0381 0.000406598 0)
(1.03833 0.000354077 0)
(1.03839 0.000292457 0)
(1.0385 0.000244461 0)
(1.03856 0.000202487 0)
(1.03862 0.000169348 0)
(1.03867 0.000142054 0)
(1.03871 0.000120383 0)