/*--------------------------------*- C++ -*----------------------------------*\
  =========                 |
  \\      /  F ield         | OpenFOAM: The Open Source CFD Toolbox
   \\    /   O peration     | Website:  https://openfoam.org
    \\  /    A nd           | Version:  7
     \\/     M anipulation  |
\*---------------------------------------------------------------------------*/
FoamFile
{
    version     2.0;
    format      ascii;
    class       volScalarField;
    location    "1";
    object      p;
}
// * * * * * * * * * * * * * * * * * * * * * * * * * * * * * * * * * * * * * //

dimensions      [0 2 -2 0 0 0 0];

internalField   nonuniform List<scalar> 
4000
(
426.864
413.627
409.572
404.298
399.617
394.833
390.236
385.699
381.251
376.859
372.519
368.216
363.946
359.7
355.475
351.265
347.068
342.881
338.701
334.528
330.358
326.193
322.029
317.868
313.709
309.55
305.392
301.235
297.078
292.921
288.765
284.608
280.452
276.296
272.14
267.984
263.828
259.673
255.517
251.361
247.205
243.049
238.893
234.738
230.582
226.426
222.27
218.114
213.959
209.803
205.647
201.491
197.335
193.179
189.024
184.868
180.712
176.556
172.4
168.245
164.089
159.933
155.777
151.621
147.465
143.31
139.154
134.998
130.842
126.686
122.531
118.375
114.219
110.063
105.908
101.752
97.5961
93.4403
89.2845
85.1287
80.973
76.8172
72.6615
68.5057
64.3501
60.1945
56.0389
51.8836
47.7284
43.5736
39.4194
35.266
31.1138
26.9635
22.8157
18.6712
14.5312
10.3929
6.27117
2.1486
424.417
413.537
409.422
404.11
399.427
394.641
390.045
385.506
381.058
376.666
372.325
368.022
363.751
359.506
355.28
351.07
346.873
342.686
338.506
334.332
330.163
325.997
321.834
317.673
313.513
309.355
305.197
301.039
296.882
292.726
288.569
284.413
280.257
276.101
271.945
267.789
263.633
259.477
255.321
251.166
247.01
242.854
238.698
234.542
230.387
226.231
222.075
217.919
213.763
209.607
205.452
201.296
197.14
192.984
188.828
184.673
180.517
176.361
172.205
168.049
163.893
159.738
155.582
151.426
147.27
143.114
138.958
134.803
130.647
126.491
122.335
118.18
114.024
109.868
105.712
101.557
97.4008
93.245
89.0892
84.9334
80.7777
76.6219
72.4662
68.3105
64.1548
59.9992
55.8436
51.6883
47.5331
43.3784
39.2241
35.0707
30.9185
26.7682
22.6204
18.4759
14.336
10.1982
6.0778
1.96698
423.135
413.534
409.374
404.031
399.348
394.558
389.962
385.422
380.974
376.581
372.239
367.936
363.665
359.419
355.194
350.984
346.786
342.599
338.419
334.246
330.076
325.911
321.747
317.586
313.426
309.268
305.11
300.952
296.796
292.639
288.483
284.326
280.17
276.014
271.858
267.702
263.546
259.39
255.235
251.079
246.923
242.767
238.611
234.455
230.3
226.144
221.988
217.832
213.676
209.521
205.365
201.209
197.053
192.897
188.741
184.586
180.43
176.274
172.118
167.962
163.806
159.651
155.495
151.339
147.183
143.027
138.872
134.716
130.56
126.404
122.248
118.093
113.937
109.781
105.625
101.47
97.3138
93.1581
89.0023
84.8465
80.6907
76.535
72.3792
68.2235
64.0678
59.9122
55.7567
51.6013
47.4462
43.2914
39.1372
34.9838
30.8316
26.6812
22.5334
18.3889
14.2491
10.1114
5.99167
1.88586
422.616
413.626
409.411
404.048
399.365
394.571
389.974
385.434
380.985
376.591
372.25
367.946
363.675
359.428
355.202
350.993
346.795
342.608
338.428
334.254
330.085
325.919
321.756
317.595
313.435
309.276
305.118
300.961
296.804
292.647
288.491
284.335
280.179
276.022
271.866
267.711
263.555
259.399
255.243
251.087
246.931
242.775
238.62
234.464
230.308
226.152
221.996
217.841
213.685
209.529
205.373
201.217
197.061
192.906
188.75
184.594
180.438
176.282
172.127
167.971
163.815
159.659
155.503
151.347
147.192
143.036
138.88
134.724
130.568
126.413
122.257
118.101
113.945
109.79
105.634
101.478
97.3223
93.1665
89.0107
84.8549
80.6992
76.5434
72.3877
68.2319
64.0763
59.9206
55.7651
51.6097
47.4546
43.2998
39.1456
34.9921
30.8399
26.6895
22.5417
18.3972
14.2575
10.1202
5.99928
1.89066
422.278
413.736
409.476
404.095
399.409
394.61
390.013
385.472
381.023
376.629
372.287
367.983
363.712
359.465
355.239
351.029
346.832
342.644
338.465
334.291
330.121
325.956
321.792
317.631
313.471
309.313
305.155
300.997
296.84
292.684
288.527
284.371
280.215
276.059
271.903
267.747
263.591
259.435
255.279
251.123
246.968
242.812
238.656
234.5
230.344
226.189
222.033
217.877
213.721
209.565
205.41
201.254
197.098
192.942
188.786
184.63
180.475
176.319
172.163
168.007
163.851
159.695
155.54
151.384
147.228
143.072
138.916
134.761
130.605
126.449
122.293
118.138
113.982
109.826
105.67
101.514
97.3587
93.2029
89.0471
84.8913
80.7356
76.5798
72.4241
68.2683
64.1127
59.957
55.8015
51.6461
47.491
43.3362
39.1819
35.0285
30.8763
26.7259
22.5781
18.4336
14.294
10.1565
6.03465
1.9217
421.973
413.832
409.543
404.144
399.454
394.651
390.055
385.512
381.063
376.669
372.326
368.022
363.751
359.504
355.278
351.068
346.87
342.683
338.503
334.329
330.16
325.994
321.831
317.669
313.51
309.351
305.193
301.036
296.879
292.722
288.566
284.409
280.253
276.097
271.941
267.785
263.629
259.474
255.318
251.162
247.006
242.85
238.694
234.539
230.383
226.227
222.071
217.915
213.76
209.604
205.448
201.292
197.136
192.98
188.825
184.669
180.513
176.357
172.201
168.045
163.89
159.734
155.578
151.422
147.266
143.111
138.955
134.799
130.643
126.487
122.332
118.176
114.02
109.864
105.709
101.553
97.397
93.2412
89.0855
84.9297
80.7739
76.6182
72.4624
68.3067
64.151
59.9954
55.8399
51.6845
47.5293
43.3746
39.2203
35.0668
30.9146
26.7642
22.6163
18.4719
14.3323
10.1953
6.07236
1.95496
421.702
413.91
409.606
404.193
399.497
394.69
390.094
385.551
381.102
376.707
372.364
368.06
363.788
359.541
355.315
351.105
346.907
342.72
338.54
334.366
330.196
326.031
321.867
317.706
313.546
309.388
305.23
301.072
296.915
292.759
288.602
284.446
280.29
276.134
271.978
267.822
263.666
259.51
255.354
251.199
247.043
242.887
238.731
234.575
230.419
226.264
222.108
217.952
213.796
209.64
205.485
201.329
197.173
193.017
188.861
184.705
180.55
176.394
172.238
168.082
163.926
159.77
155.615
151.459
147.303
143.147
138.991
134.836
130.68
126.524
122.368
118.213
114.057
109.901
105.745
101.589
97.4337
93.2779
89.1221
84.9663
80.8106
76.6548
72.4991
68.3434
64.1877
60.0321
55.8765
51.7211
47.566
43.4112
39.2569
35.1035
30.9512
26.8008
22.6529
18.5086
14.3691
10.2325
6.1082
1.98637
421.467
413.973
409.666
404.239
399.537
394.726
390.13
385.587
381.138
376.742
372.4
368.095
363.823
359.576
355.35
351.14
346.942
342.754
338.574
334.401
330.231
326.065
321.902
317.741
313.581
309.422
305.264
301.107
296.95
292.793
288.637
284.481
280.325
276.169
272.013
267.857
263.701
259.545
255.389
251.233
247.077
242.922
238.766
234.61
230.454
226.298
222.143
217.987
213.831
209.675
205.519
201.363
197.208
193.052
188.896
184.74
180.584
176.428
172.273
168.117
163.961
159.805
155.649
151.493
147.338
143.182
139.026
134.87
130.715
126.559
122.403
118.247
114.091
109.936
105.78
101.624
97.4684
93.3126
89.1568
85.001
80.8453
76.6895
72.5338
68.378
64.2224
60.0667
55.9112
51.7558
47.6007
43.4459
39.2916
35.1381
30.9859
26.8354
22.6876
18.5433
14.4038
10.2679
6.14197
2.01578
421.262
414.025
409.721
404.282
399.574
394.76
390.164
385.62
381.171
376.775
372.433
368.128
363.856
359.609
355.383
351.172
346.975
342.787
338.607
334.433
330.263
326.098
321.934
317.773
313.613
309.455
305.297
301.139
296.982
292.826
288.669
284.513
280.357
276.201
272.045
267.889
263.733
259.577
255.421
251.265
247.11
242.954
238.798
234.642
230.486
226.331
222.175
218.019
213.863
209.707
205.552
201.396
197.24
193.084
188.928
184.772
180.617
176.461
172.305
168.149
163.993
159.837
155.682
151.526
147.37
143.214
139.058
134.903
130.747
126.591
122.435
118.28
114.124
109.968
105.812
101.656
97.5006
93.3449
89.1891
85.0333
80.8776
76.7218
72.5661
68.4103
64.2547
60.099
55.9435
51.7881
47.6329
43.4781
39.3239
35.1704
31.0181
26.8677
22.7198
18.5756
14.4362
10.3009
6.17343
2.04302
421.083
414.067
409.771
404.323
399.607
394.79
390.195
385.651
381.202
376.806
372.463
368.158
363.886
359.639
355.412
351.202
347.004
342.817
338.637
334.463
330.293
326.127
321.964
317.803
313.643
309.484
305.326
301.169
297.012
292.855
288.699
284.543
280.387
276.231
272.075
267.919
263.763
259.607
255.451
251.295
247.139
242.984
238.828
234.672
230.516
226.36
222.204
218.049
213.893
209.737
205.581
201.425
197.27
193.114
188.958
184.802
180.646
176.49
172.335
168.179
164.023
159.867
155.711
151.555
147.4
143.244
139.088
134.932
130.776
126.621
122.465
118.309
114.153
109.998
105.842
101.686
97.5303
93.3745
89.2188
85.063
80.9072
76.7515
72.5957
68.44
64.2843
60.1287
55.9732
51.8178
47.6626
43.5078
39.3535
35.2
31.0478
26.8973
22.7494
18.6053
14.4659
10.3314
6.20237
2.06796
420.926
414.101
409.816
404.36
399.638
394.818
390.223
385.678
381.229
376.833
372.49
368.186
363.913
359.666
355.44
351.229
347.031
342.844
338.664
334.49
330.32
326.154
321.991
317.83
313.67
309.511
305.353
301.196
297.039
292.882
288.726
284.57
280.414
276.258
272.102
267.946
263.79
259.634
255.478
251.322
247.166
243.01
238.855
234.699
230.543
226.387
222.231
218.076
213.92
209.764
205.608
201.452
197.296
193.141
188.985
184.829
180.673
176.517
172.362
168.206
164.05
159.894
155.738
151.582
147.427
143.271
139.115
134.959
130.803
126.648
122.492
118.336
114.18
110.025
105.869
101.713
97.5573
93.4015
89.2457
85.09
80.9342
76.7784
72.6227
68.467
64.3113
60.1557
56.0001
51.8447
47.6896
43.5348
39.3805
35.227
31.0747
26.9243
22.7764
18.6323
14.493
10.3593
6.22871
2.09056
420.791
414.128
409.857
404.394
399.666
394.843
390.248
385.703
381.254
376.858
372.515
368.21
363.938
359.691
355.464
351.254
347.056
342.868
338.688
334.514
330.344
326.179
322.015
317.854
313.694
309.535
305.378
301.22
297.063
292.907
288.75
284.594
280.438
276.282
272.126
267.97
263.814
259.658
255.502
251.346
247.191
243.035
238.879
234.723
230.567
226.412
222.256
218.1
213.944
209.788
205.632
201.477
197.321
193.165
189.009
184.853
180.698
176.542
172.386
168.23
164.074
159.918
155.763
151.607
147.451
143.295
139.139
134.984
130.828
126.672
122.516
118.36
114.205
110.049
105.893
101.737
97.5816
93.4258
89.27
85.1142
80.9585
76.8027
72.647
68.4913
64.3356
60.1799
56.0244
51.869
47.7139
43.559
39.4048
35.2513
31.099
26.9485
22.8006
18.6566
14.5173
10.3844
6.25244
2.11083
420.674
414.149
409.893
404.425
399.69
394.865
390.27
385.725
381.276
376.88
372.537
368.232
363.96
359.712
355.486
351.275
347.077
342.89
338.709
334.535
330.366
326.2
322.037
317.876
313.716
309.557
305.399
301.242
297.085
292.928
288.772
284.616
280.459
276.303
272.147
267.991
263.836
259.68
255.524
251.368
247.212
243.056
238.901
234.745
230.589
226.433
222.277
218.121
213.966
209.81
205.654
201.498
197.342
193.187
189.031
184.875
180.719
176.563
172.407
168.252
164.096
159.94
155.784
151.628
147.472
143.317
139.161
135.005
130.849
126.694
122.538
118.382
114.226
110.07
105.915
101.759
97.6032
93.4474
89.2916
85.1358
80.9801
76.8243
72.6686
68.5128
64.3572
60.2015
56.046
51.8906
47.7354
43.5806
39.4263
35.2728
31.1205
26.9701
22.8222
18.6782
14.539
10.4068
6.27356
2.12881
420.575
414.165
409.924
404.452
399.711
394.884
390.29
385.744
381.296
376.899
372.556
368.251
363.979
359.732
355.505
351.294
347.096
342.908
338.728
334.554
330.385
326.219
322.056
317.894
313.735
309.576
305.418
301.261
297.104
292.947
288.791
284.634
280.478
276.322
272.166
268.01
263.854
259.699
255.543
251.387
247.231
243.075
238.919
234.764
230.608
226.452
222.296
218.14
213.985
209.829
205.673
201.517
197.361
193.205
189.05
184.894
180.738
176.582
172.426
168.271
164.115
159.959
155.803
151.647
147.491
143.336
139.18
135.024
130.868
126.712
122.557
118.401
114.245
110.089
105.934
101.778
97.622
93.4663
89.3105
85.1547
80.999
76.8432
72.6875
68.5317
64.3761
60.2204
56.0649
51.9095
47.7543
43.5995
39.4452
35.2917
31.1394
26.989
22.841
18.6972
14.5579
10.4265
6.29206
2.14451
420.492
414.178
409.95
404.475
399.73
394.9
390.306
385.761
381.312
376.916
372.573
368.268
363.995
359.748
355.521
351.31
347.113
342.925
338.745
334.571
330.401
326.235
322.072
317.911
313.751
309.592
305.434
301.277
297.12
292.963
288.807
284.651
280.495
276.338
272.182
268.027
263.871
259.715
255.559
251.403
247.247
243.091
238.936
234.78
230.624
226.468
222.312
218.157
214.001
209.845
205.689
201.533
197.377
193.222
189.066
184.91
180.754
176.598
172.443
168.287
164.131
159.975
155.819
151.663
147.508
143.352
139.196
135.04
130.884
126.729
122.573
118.417
114.261
110.106
105.95
101.794
97.6382
93.4825
89.3267
85.1709
81.0152
76.8594
72.7037
68.5479
64.3922
60.2366
56.0811
51.9257
47.7705
43.6157
39.4614
35.3079
31.1556
27.0051
22.8572
18.7134
14.5742
10.4434
6.30793
2.15795
420.424
414.188
409.972
404.495
399.745
394.914
390.32
385.774
381.326
376.93
372.586
368.281
364.009
359.761
355.535
351.324
347.126
342.938
338.758
334.584
330.415
326.249
322.085
317.924
313.764
309.606
305.448
301.29
297.133
292.977
288.82
284.664
280.508
276.352
272.196
268.04
263.884
259.728
255.572
251.417
247.261
243.105
238.949
234.793
230.637
226.482
222.326
218.17
214.014
209.858
205.703
201.547
197.391
193.235
189.079
184.923
180.768
176.612
172.456
168.3
164.144
159.989
155.833
151.677
147.521
143.365
139.209
135.054
130.898
126.742
122.586
118.431
114.275
110.119
105.963
101.808
97.6517
93.496
89.3402
85.1844
81.0286
76.8729
72.7171
68.5614
64.4057
60.2501
56.0946
51.9392
47.784
43.6292
39.4749
35.3214
31.1691
27.0186
22.8706
18.7269
14.5877
10.4576
6.32117
2.16913
420.371
414.196
409.989
404.51
399.757
394.925
390.331
385.785
381.337
376.941
372.597
368.292
364.02
359.772
355.545
351.335
347.137
342.949
338.769
334.595
330.425
326.259
322.096
317.935
313.775
309.616
305.458
301.301
297.144
292.988
288.831
284.675
280.519
276.363
272.207
268.051
263.895
259.739
255.583
251.427
247.272
243.116
238.96
234.804
230.648
226.492
222.337
218.181
214.025
209.869
205.713
201.558
197.402
193.246
189.09
184.934
180.778
176.623
172.467
168.311
164.155
159.999
155.843
151.688
147.532
143.376
139.22
135.064
130.909
126.753
122.597
118.441
114.286
110.13
105.974
101.818
97.6625
93.5067
89.351
85.1952
81.0394
76.8837
72.7279
68.5722
64.4165
60.2609
56.1054
51.95
47.7948
43.64
39.4857
35.3322
31.1799
27.0294
22.8814
18.7377
14.5986
10.4689
6.33177
2.17807
420.332
414.201
410.002
404.522
399.766
394.933
390.339
385.793
381.345
376.949
372.606
368.3
364.028
359.78
355.554
351.343
347.145
342.957
338.777
334.603
330.433
326.268
322.104
317.943
313.783
309.624
305.467
301.309
297.152
292.996
288.839
284.683
280.527
276.371
272.215
268.059
263.903
259.747
255.591
251.435
247.28
243.124
238.968
234.812
230.656
226.501
222.345
218.189
214.033
209.877
205.721
201.566
197.41
193.254
189.098
184.942
180.787
176.631
172.475
168.319
164.163
160.007
155.852
151.696
147.54
143.384
139.228
135.073
130.917
126.761
122.605
118.449
114.294
110.138
105.982
101.826
97.6706
93.5148
89.3591
85.2033
81.0475
76.8918
72.736
68.5803
64.4246
60.269
56.1134
51.958
47.8029
43.6481
39.4938
35.3403
31.1879
27.0375
22.8895
18.7459
14.6067
10.4774
6.33972
2.18477
420.306
414.204
410.011
404.53
399.772
394.938
390.344
385.799
381.351
376.954
372.611
368.306
364.033
359.786
355.559
351.348
347.15
342.962
338.782
334.608
330.439
326.273
322.11
317.948
313.789
309.63
305.472
301.315
297.158
293.001
288.845
284.688
280.532
276.376
272.22
268.064
263.908
259.753
255.597
251.441
247.285
243.129
238.973
234.818
230.662
226.506
222.35
218.194
214.038
209.883
205.727
201.571
197.415
193.259
189.104
184.948
180.792
176.636
172.48
168.324
164.169
160.013
155.857
151.701
147.545
143.39
139.234
135.078
130.922
126.766
122.611
118.455
114.299
110.143
105.988
101.832
97.676
93.5202
89.3645
85.2087
81.0529
76.8972
72.7414
68.5857
64.43
60.2744
56.1188
51.9634
47.8083
43.6534
39.4991
35.3457
31.1933
27.0429
22.8949
18.7513
14.6121
10.4831
6.34502
2.18923
420.293
414.206
410.015
404.534
399.775
394.941
390.347
385.802
381.353
376.957
372.614
368.308
364.036
359.789
355.562
351.351
347.153
342.965
338.785
334.611
330.442
326.276
322.112
317.951
313.791
309.633
305.475
301.317
297.16
293.004
288.847
284.691
280.535
276.379
272.223
268.067
263.911
259.755
255.599
251.444
247.288
243.132
238.976
234.82
230.664
226.509
222.353
218.197
214.041
209.885
205.73
201.574
197.418
193.262
189.106
184.95
180.795
176.639
172.483
168.327
164.171
160.016
155.86
151.704
147.548
143.392
139.236
135.081
130.925
126.769
122.613
118.458
114.302
110.146
105.99
101.834
97.6787
93.5229
89.3672
85.2114
81.0556
76.8999
72.7441
68.5884
64.4327
60.2771
56.1215
51.9661
47.811
43.6561
39.5018
35.3484
31.196
27.0456
22.8976
18.754
14.6148
10.4859
6.34767
2.19146
420.293
414.206
410.015
404.534
399.775
394.941
390.347
385.802
381.353
376.957
372.614
368.308
364.036
359.789
355.562
351.351
347.153
342.965
338.785
334.611
330.442
326.276
322.112
317.951
313.791
309.633
305.475
301.317
297.16
293.004
288.847
284.691
280.535
276.379
272.223
268.067
263.911
259.755
255.599
251.444
247.288
243.132
238.976
234.82
230.664
226.509
222.353
218.197
214.041
209.885
205.73
201.574
197.418
193.262
189.106
184.95
180.795
176.639
172.483
168.327
164.171
160.016
155.86
151.704
147.548
143.392
139.236
135.081
130.925
126.769
122.613
118.458
114.302
110.146
105.99
101.834
97.6787
93.5229
89.3672
85.2114
81.0556
76.8999
72.7441
68.5884
64.4327
60.2771
56.1215
51.9661
47.811
43.6561
39.5018
35.3484
31.196
27.0456
22.8976
18.754
14.6148
10.4859
6.34767
2.19146
420.306
414.204
410.011
404.53
399.772
394.938
390.344
385.799
381.351
376.954
372.611
368.306
364.033
359.786
355.559
351.348
347.15
342.962
338.782
334.608
330.439
326.273
322.11
317.948
313.789
309.63
305.472
301.315
297.158
293.001
288.845
284.688
280.532
276.376
272.22
268.064
263.908
259.753
255.597
251.441
247.285
243.129
238.973
234.818
230.662
226.506
222.35
218.194
214.038
209.883
205.727
201.571
197.415
193.259
189.104
184.948
180.792
176.636
172.48
168.324
164.169
160.013
155.857
151.701
147.545
143.39
139.234
135.078
130.922
126.766
122.611
118.455
114.299
110.143
105.988
101.832
97.676
93.5202
89.3645
85.2087
81.0529
76.8972
72.7414
68.5857
64.43
60.2744
56.1188
51.9634
47.8083
43.6534
39.4991
35.3457
31.1933
27.0429
22.8949
18.7513
14.6121
10.4831
6.34502
2.18923
420.332
414.201
410.002
404.522
399.766
394.933
390.339
385.793
381.345
376.949
372.606
368.3
364.028
359.78
355.554
351.343
347.145
342.957
338.777
334.603
330.433
326.267
322.104
317.943
313.783
309.624
305.467
301.309
297.152
292.996
288.839
284.683
280.527
276.371
272.215
268.059
263.903
259.747
255.591
251.435
247.28
243.124
238.968
234.812
230.656
226.501
222.345
218.189
214.033
209.877
205.721
201.566
197.41
193.254
189.098
184.942
180.787
176.631
172.475
168.319
164.163
160.007
155.852
151.696
147.54
143.384
139.228
135.073
130.917
126.761
122.605
118.449
114.294
110.138
105.982
101.826
97.6706
93.5148
89.3591
85.2033
81.0475
76.8918
72.736
68.5803
64.4246
60.269
56.1134
51.958
47.8029
43.648
39.4937
35.3403
31.1879
27.0375
22.8895
18.7459
14.6067
10.4774
6.33972
2.18477
420.371
414.196
409.989
404.51
399.757
394.925
390.331
385.785
381.337
376.941
372.597
368.292
364.02
359.772
355.545
351.335
347.137
342.949
338.769
334.595
330.425
326.259
322.096
317.935
313.775
309.616
305.458
301.301
297.144
292.988
288.831
284.675
280.519
276.363
272.207
268.051
263.895
259.739
255.583
251.427
247.271
243.116
238.96
234.804
230.648
226.492
222.337
218.181
214.025
209.869
205.713
201.558
197.402
193.246
189.09
184.934
180.778
176.623
172.467
168.311
164.155
159.999
155.843
151.688
147.532
143.376
139.22
135.064
130.909
126.753
122.597
118.441
114.286
110.13
105.974
101.818
97.6625
93.5067
89.351
85.1952
81.0394
76.8837
72.7279
68.5722
64.4165
60.2609
56.1053
51.9499
47.7948
43.6399
39.4856
35.3322
31.1798
27.0294
22.8814
18.7377
14.5986
10.4689
6.33176
2.17807
420.424
414.188
409.972
404.494
399.745
394.914
390.32
385.774
381.326
376.93
372.586
368.281
364.009
359.761
355.535
351.324
347.126
342.938
338.758
334.584
330.415
326.249
322.085
317.924
313.764
309.606
305.448
301.29
297.133
292.977
288.82
284.664
280.508
276.352
272.196
268.04
263.884
259.728
255.572
251.417
247.261
243.105
238.949
234.793
230.637
226.482
222.326
218.17
214.014
209.858
205.703
201.547
197.391
193.235
189.079
184.923
180.768
176.612
172.456
168.3
164.144
159.989
155.833
151.677
147.521
143.365
139.209
135.054
130.898
126.742
122.586
118.431
114.275
110.119
105.963
101.807
97.6517
93.4959
89.3402
85.1844
81.0287
76.8729
72.7172
68.5614
64.4057
60.2501
56.0945
51.9391
47.784
43.6291
39.4749
35.3214
31.1691
27.0186
22.8706
18.7269
14.5877
10.4576
6.32117
2.16913
420.492
414.178
409.95
404.475
399.73
394.9
390.306
385.761
381.312
376.916
372.573
368.268
363.995
359.748
355.521
351.31
347.112
342.925
338.745
334.57
330.401
326.235
322.072
317.911
313.751
309.592
305.434
301.277
297.12
292.963
288.807
284.651
280.494
276.338
272.182
268.027
263.871
259.715
255.559
251.403
247.247
243.091
238.936
234.78
230.624
226.468
222.312
218.156
214.001
209.845
205.689
201.533
197.377
193.222
189.066
184.91
180.754
176.598
172.443
168.287
164.131
159.975
155.819
151.663
147.508
143.352
139.196
135.04
130.884
126.729
122.573
118.417
114.261
110.106
105.95
101.794
97.6382
93.4824
89.3267
85.1709
81.0152
76.8594
72.7037
68.5479
64.3922
60.2366
56.0811
51.9257
47.7705
43.6157
39.4614
35.3079
31.1556
27.0051
22.8572
18.7134
14.5742
10.4434
6.30793
2.15795
420.575
414.165
409.924
404.452
399.711
394.884
390.29
385.744
381.296
376.899
372.556
368.251
363.979
359.731
355.505
351.294
347.096
342.908
338.728
334.554
330.385
326.219
322.056
317.894
313.735
309.576
305.418
301.261
297.104
292.947
288.791
284.634
280.478
276.322
272.166
268.01
263.854
259.699
255.543
251.387
247.231
243.075
238.919
234.764
230.608
226.452
222.296
218.14
213.984
209.829
205.673
201.517
197.361
193.205
189.05
184.894
180.738
176.582
172.426
168.271
164.115
159.959
155.803
151.647
147.491
143.336
139.18
135.024
130.868
126.712
122.557
118.401
114.245
110.089
105.934
101.778
97.622
93.4663
89.3105
85.1547
80.999
76.8432
72.6875
68.5317
64.376
60.2204
56.0649
51.9095
47.7543
43.5995
39.4452
35.2917
31.1394
26.9889
22.841
18.6971
14.5579
10.4265
6.29206
2.14451
420.674
414.149
409.893
404.425
399.69
394.865
390.27
385.725
381.276
376.88
372.537
368.232
363.96
359.712
355.486
351.275
347.077
342.889
338.709
334.535
330.366
326.2
322.037
317.875
313.716
309.557
305.399
301.242
297.085
292.928
288.772
284.616
280.459
276.303
272.147
267.991
263.836
259.68
255.524
251.368
247.212
243.056
238.9
234.745
230.589
226.433
222.277
218.121
213.966
209.81
205.654
201.498
197.342
193.187
189.031
184.875
180.719
176.563
172.407
168.252
164.096
159.94
155.784
151.628
147.472
143.317
139.161
135.005
130.849
126.693
122.538
118.382
114.226
110.07
105.915
101.759
97.6031
93.4474
89.2916
85.1358
80.9801
76.8243
72.6686
68.5129
64.3572
60.2015
56.046
51.8906
47.7354
43.5806
39.4263
35.2728
31.1205
26.9701
22.8221
18.6782
14.539
10.4068
6.27356
2.12881
420.791
414.127
409.857
404.394
399.666
394.843
390.248
385.703
381.254
376.858
372.515
368.21
363.938
359.691
355.464
351.253
347.056
342.868
338.688
334.514
330.344
326.178
322.015
317.854
313.694
309.535
305.377
301.22
297.063
292.907
288.75
284.594
280.438
276.282
272.126
267.97
263.814
259.658
255.502
251.346
247.191
243.035
238.879
234.723
230.567
226.411
222.256
218.1
213.944
209.788
205.632
201.477
197.321
193.165
189.009
184.853
180.698
176.542
172.386
168.23
164.074
159.918
155.763
151.607
147.451
143.295
139.139
134.983
130.828
126.672
122.516
118.36
114.205
110.049
105.893
101.737
97.5815
93.4258
89.27
85.1143
80.9585
76.8027
72.647
68.4913
64.3356
60.1799
56.0244
51.869
47.7138
43.559
39.4047
35.2512
31.0989
26.9485
22.8006
18.6566
14.5173
10.3844
6.25244
2.11083
420.926
414.101
409.816
404.36
399.638
394.818
390.223
385.678
381.229
376.833
372.49
368.186
363.913
359.666
355.44
351.229
347.031
342.843
338.663
334.489
330.32
326.154
321.991
317.83
313.67
309.511
305.353
301.196
297.039
292.882
288.726
284.57
280.414
276.257
272.101
267.946
263.79
259.634
255.478
251.322
247.166
243.01
238.855
234.699
230.543
226.387
222.231
218.076
213.92
209.764
205.608
201.452
197.296
193.141
188.985
184.829
180.673
176.517
172.362
168.206
164.05
159.894
155.738
151.582
147.427
143.271
139.115
134.959
130.803
126.648
122.492
118.336
114.18
110.025
105.869
101.713
97.5573
93.4015
89.2457
85.09
80.9342
76.7785
72.6227
68.467
64.3113
60.1557
56.0001
51.8447
47.6895
43.5347
39.3804
35.227
31.0747
26.9242
22.7763
18.6323
14.493
10.3593
6.22871
2.09056
421.083
414.067
409.771
404.323
399.607
394.79
390.195
385.65
381.202
376.806
372.463
368.158
363.886
359.639
355.412
351.202
347.004
342.816
338.636
334.462
330.293
326.127
321.964
317.803
313.643
309.484
305.326
301.169
297.012
292.855
288.699
284.543
280.387
276.23
272.074
267.919
263.763
259.607
255.451
251.295
247.139
242.983
238.828
234.672
230.516
226.36
222.204
218.049
213.893
209.737
205.581
201.425
197.269
193.114
188.958
184.802
180.646
176.49
172.335
168.179
164.023
159.867
155.711
151.555
147.4
143.244
139.088
134.932
130.776
126.621
122.465
118.309
114.153
109.998
105.842
101.686
97.5303
93.3745
89.2188
85.063
80.9072
76.7515
72.5957
68.44
64.2843
60.1287
55.9731
51.8177
47.6626
43.5077
39.3535
35.2
31.0477
26.8973
22.7494
18.6052
14.4659
10.3314
6.20236
2.06796
421.262
414.025
409.721
404.282
399.573
394.759
390.164
385.62
381.171
376.775
372.433
368.128
363.856
359.609
355.383
351.172
346.974
342.787
338.607
334.433
330.263
326.097
321.934
317.773
313.613
309.454
305.296
301.139
296.982
292.826
288.669
284.513
280.357
276.201
272.045
267.889
263.733
259.577
255.421
251.265
247.11
242.954
238.798
234.642
230.486
226.33
222.175
218.019
213.863
209.707
205.551
201.396
197.24
193.084
188.928
184.772
180.617
176.461
172.305
168.149
163.993
159.837
155.682
151.526
147.37
143.214
139.058
134.903
130.747
126.591
122.435
118.279
114.124
109.968
105.812
101.656
97.5006
93.3449
89.1891
85.0333
80.8776
76.7218
72.5661
68.4103
64.2546
60.099
55.9435
51.7881
47.6329
43.4781
39.3238
35.1703
31.0181
26.8676
22.7198
18.5756
14.4362
10.3009
6.17342
2.04302
421.467
413.973
409.665
404.239
399.536
394.726
390.13
385.586
381.137
376.742
372.4
368.095
363.823
359.576
355.35
351.14
346.942
342.754
338.574
334.4
330.231
326.065
321.902
317.741
313.581
309.422
305.264
301.107
296.95
292.793
288.637
284.481
280.325
276.169
272.013
267.857
263.701
259.545
255.389
251.233
247.077
242.921
238.766
234.61
230.454
226.298
222.142
217.987
213.831
209.675
205.519
201.363
197.207
193.052
188.896
184.74
180.584
176.428
172.273
168.117
163.961
159.805
155.649
151.493
147.338
143.182
139.026
134.87
130.714
126.559
122.403
118.247
114.091
109.936
105.78
101.624
97.4683
93.3126
89.1568
85.001
80.8453
76.6895
72.5338
68.378
64.2224
60.0667
55.9112
51.7558
47.6006
43.4458
39.2915
35.1381
30.9858
26.8354
22.6875
18.5432
14.4038
10.2679
6.14196
2.01578
421.702
413.909
409.606
404.192
399.496
394.69
390.094
385.55
381.101
376.706
372.364
368.06
363.788
359.541
355.315
351.105
346.907
342.72
338.54
334.366
330.196
326.03
321.867
317.706
313.546
309.387
305.23
301.072
296.915
292.759
288.602
284.446
280.29
276.134
271.978
267.822
263.666
259.51
255.354
251.198
247.043
242.887
238.731
234.575
230.419
226.264
222.108
217.952
213.796
209.64
205.484
201.329
197.173
193.017
188.861
184.705
180.55
176.394
172.238
168.082
163.926
159.77
155.615
151.459
147.303
143.147
138.991
134.836
130.68
126.524
122.368
118.212
114.057
109.901
105.745
101.589
97.4336
93.2779
89.1221
84.9664
80.8106
76.6548
72.4991
68.3434
64.1877
60.032
55.8765
51.7211
47.5659
43.4111
39.2569
35.1034
30.9512
26.8007
22.6529
18.5086
14.3691
10.2325
6.1082
1.98637
421.973
413.832
409.542
404.144
399.454
394.651
390.054
385.512
381.063
376.669
372.326
368.022
363.751
359.504
355.278
351.068
346.87
342.683
338.503
334.329
330.16
325.994
321.831
317.669
313.509
309.351
305.193
301.036
296.879
292.722
288.566
284.409
280.253
276.097
271.941
267.785
263.629
259.473
255.318
251.162
247.006
242.85
238.694
234.538
230.383
226.227
222.071
217.915
213.759
209.604
205.448
201.292
197.136
192.98
188.825
184.669
180.513
176.357
172.201
168.045
163.89
159.734
155.578
151.422
147.266
143.11
138.955
134.799
130.643
126.487
122.332
118.176
114.02
109.864
105.709
101.553
97.397
93.2412
89.0855
84.9297
80.7739
76.6182
72.4624
68.3067
64.151
59.9954
55.8398
51.6845
47.5293
43.3745
39.2202
35.0668
30.9146
26.7641
22.6163
18.4719
14.3323
10.1952
6.07235
1.95496
422.278
413.736
409.476
404.095
399.409
394.61
390.013
385.472
381.023
376.629
372.287
367.983
363.712
359.465
355.239
351.029
346.832
342.644
338.464
334.291
330.121
325.955
321.792
317.631
313.471
309.312
305.154
300.997
296.84
292.684
288.527
284.371
280.215
276.059
271.903
267.747
263.591
259.435
255.279
251.123
246.968
242.812
238.656
234.5
230.344
226.188
222.033
217.877
213.721
209.565
205.409
201.254
197.098
192.942
188.786
184.63
180.475
176.319
172.163
168.007
163.851
159.695
155.54
151.384
147.228
143.072
138.916
134.761
130.605
126.449
122.293
118.137
113.982
109.826
105.67
101.514
97.3586
93.2029
89.0471
84.8913
80.7356
76.5798
72.4241
68.2683
64.1127
59.957
55.8015
51.6461
47.4909
43.3361
39.1819
35.0284
30.8762
26.7258
22.578
18.4336
14.294
10.1565
6.03464
1.9217
422.616
413.626
409.411
404.048
399.365
394.57
389.974
385.433
380.985
376.591
372.249
367.946
363.675
359.428
355.202
350.992
346.795
342.608
338.428
334.254
330.085
325.919
321.756
317.594
313.435
309.276
305.118
300.961
296.804
292.647
288.491
284.335
280.178
276.022
271.866
267.71
263.555
259.399
255.243
251.087
246.931
242.775
238.62
234.464
230.308
226.152
221.996
217.84
213.685
209.529
205.373
201.217
197.061
192.906
188.75
184.594
180.438
176.282
172.127
167.971
163.815
159.659
155.503
151.347
147.192
143.036
138.88
134.724
130.568
126.413
122.257
118.101
113.945
109.789
105.634
101.478
97.3222
93.1665
89.0107
84.8549
80.6992
76.5434
72.3877
68.2319
64.0763
59.9206
55.7651
51.6097
47.4545
43.2998
39.1455
34.9921
30.8399
26.6895
22.5417
18.3972
14.2575
10.1202
5.99927
1.89066
423.135
413.533
409.374
404.031
399.348
394.558
389.961
385.422
380.974
376.581
372.239
367.936
363.665
359.419