/*--------------------------------*- C++ -*----------------------------------*\
  =========                 |
  \\      /  F ield         | OpenFOAM: The Open Source CFD Toolbox
   \\    /   O peration     | Website:  https://openfoam.org
    \\  /    A nd           | Version:  7
     \\/     M anipulation  |
\*---------------------------------------------------------------------------*/
FoamFile
{
    version     2.0;
    format      ascii;
    class       volScalarField;
    location    "1";
    object      pB;
}
// * * * * * * * * * * * * * * * * * * * * * * * * * * * * * * * * * * * * * //

dimensions      [1 1 -3 0 0 -1 0];

internalField   nonuniform List<scalar> 
4000
(
26.4262
60.5071
78.6755
84.7187
83.6461
77.967
70.045
61.2248
52.426
44.1451
36.6566
30.0684
24.3949
19.5907
15.5794
12.2696
9.56654
7.3791
5.62346
4.22488
3.11835
2.24842
1.56848
1.03988
0.631047
0.316298
0.0750198
-0.109158
-0.249265
-0.355439
-0.435656
-0.496086
-0.54147
-0.575468
-0.60089
-0.619837
-0.633941
-0.644412
-0.652167
-0.657899
-0.662138
-0.665239
-0.667534
-0.669204
-0.670423
-0.671317
-0.671964
-0.672423
-0.672766
-0.672988
-0.673153
-0.673258
-0.673325
-0.673361
-0.67338
-0.673369
-0.673356
-0.673323
-0.673289
-0.673243
-0.673199
-0.673141
-0.673087
-0.673017
-0.672946
-0.672857
-0.672759
-0.672636
-0.672496
-0.672316
-0.672101
-0.671815
-0.671449
-0.670962
-0.67032
-0.669459
-0.668314
-0.666766
-0.664703
-0.661932
-0.658231
-0.653292
-0.646728
-0.638029
-0.626577
-0.611589
-0.592155
-0.567222
-0.535679
-0.49648
-0.448936
-0.393152
-0.330884
-0.266747
-0.210174
-0.177301
-0.190743
-0.268692
-0.382073
-0.370363
28.6108
60.5716
77.9973
83.9761
82.9365
77.3558
69.5292
60.7996
52.0793
43.8669
36.4367
29.8978
24.2655
19.4953
15.5118
12.2245
9.53947
7.36636
5.622
4.23225
3.13256
2.2679
1.59199
1.06647
0.65996
0.346968
0.107008
-0.0761809
-0.215549
-0.321175
-0.400983
-0.461111
-0.506273
-0.540104
-0.565405
-0.58426
-0.598297
-0.608719
-0.616439
-0.622143
-0.626363
-0.629449
-0.631733
-0.633395
-0.634609
-0.635498
-0.636142
-0.636597
-0.636939
-0.637159
-0.637323
-0.637427
-0.637494
-0.637528
-0.637547
-0.637535
-0.637523
-0.637489
-0.637455
-0.637408
-0.637365
-0.637307
-0.637254
-0.637184
-0.637113
-0.637025
-0.636927
-0.636805
-0.636667
-0.636486
-0.636273
-0.635987
-0.635622
-0.635137
-0.634499
-0.63364
-0.632501
-0.630961
-0.628908
-0.626152
-0.622471
-0.617558
-0.611031
-0.602379
-0.590995
-0.576096
-0.556785
-0.532017
-0.500698
-0.461801
-0.414655
-0.359384
-0.29774
-0.23427
-0.178134
-0.144666
-0.154503
-0.221637
-0.314539
-0.297077
29.9592
60.5084
77.0255
82.8421
81.8131
76.3534
68.6626
60.0703
51.4752
43.375
36.0426
29.5879
24.0269
19.3164
15.3821
12.1349
9.48243
7.33536
5.61167
4.2382
3.15124
2.29647
1.62819
1.10852
0.706474
0.396878
0.159488
-0.0217611
-0.159669
-0.264205
-0.343195
-0.402713
-0.447424
-0.480917
-0.505969
-0.524637
-0.538537
-0.548857
-0.556501
-0.562149
-0.566329
-0.569384
-0.571644
-0.57329
-0.574492
-0.575371
-0.576009
-0.576458
-0.576796
-0.577014
-0.577176
-0.577278
-0.577344
-0.577374
-0.577393
-0.57738
-0.577367
-0.577333
-0.5773
-0.577252
-0.57721
-0.577151
-0.5771
-0.57703
-0.576961
-0.576873
-0.576777
-0.576654
-0.576518
-0.576338
-0.576126
-0.575842
-0.575481
-0.575
-0.574367
-0.573517
-0.572389
-0.570865
-0.568833
-0.566106
-0.562464
-0.557603
-0.551147
-0.54259
-0.531333
-0.516606
-0.497522
-0.473056
-0.442137
-0.40376
-0.357281
-0.302834
-0.242135
-0.179563
-0.123784
-0.0888241
-0.092553
-0.143852
-0.211541
-0.186189
30.0971
59.9695
75.6066
81.1889
80.1609
74.8518
67.3464
58.947
50.5324
42.5961
35.4081
29.0785
23.6239
19.0027
15.1424
11.9559
9.35261
7.24506
5.55284
4.20424
3.13677
2.29718
1.64065
1.13003
0.734899
0.430581
0.197198
0.0189814
-0.11664
-0.219461
-0.297165
-0.35572
-0.399716
-0.432674
-0.45733
-0.475704
-0.489384
-0.499541
-0.507066
-0.512624
-0.516739
-0.519745
-0.521968
-0.523587
-0.524771
-0.525633
-0.526262
-0.526702
-0.527034
-0.527249
-0.527407
-0.527505
-0.527569
-0.527597
-0.527614
-0.5276
-0.527586
-0.527551
-0.527517
-0.52747
-0.527428
-0.52737
-0.52732
-0.527251
-0.527183
-0.527096
-0.527002
-0.52688
-0.526747
-0.526568
-0.526358
-0.526078
-0.525721
-0.525246
-0.524623
-0.523785
-0.522675
-0.521177
-0.519178
-0.516496
-0.512916
-0.508137
-0.501791
-0.493381
-0.482321
-0.467856
-0.44912
-0.425112
-0.394791
-0.357186
-0.31168
-0.258407
-0.199015
-0.137606
-0.0821148
-0.0447639
-0.0399611
-0.0710232
-0.109497
-0.0720901
29.3434
58.8317
73.7104
79.0264
77.9994
72.8672
65.5929
57.4387
49.2576
41.5352
34.5367
28.3719
23.0579
18.5551
14.793
11.6871
9.14932
7.09448
5.44432
4.129
3.08769
2.26851
1.62781
1.12939
0.74362
0.446454
0.218512
0.0444166
-0.0880912
-0.188571
-0.264518
-0.321758
-0.364773
-0.397
-0.421112
-0.43908
-0.452458
-0.462392
-0.469752
-0.475187
-0.479211
-0.48215
-0.484323
-0.485906
-0.487063
-0.487904
-0.488519
-0.488947
-0.48927
-0.48948
-0.489633
-0.489727
-0.489788
-0.489812
-0.489827
-0.489811
-0.489796
-0.48976
-0.489727
-0.489679
-0.489639
-0.489581
-0.489532
-0.489465
-0.489398
-0.489313
-0.48922
-0.4891
-0.48897
-0.488794
-0.488587
-0.488311
-0.48796
-0.487494
-0.486884
-0.486063
-0.484978
-0.483513
-0.481561
-0.478941
-0.475444
-0.470775
-0.464579
-0.456368
-0.445574
-0.431462
-0.41319
-0.389791
-0.360261
-0.323667
-0.279421
-0.227651
-0.169892
-0.109881
-0.0546209
-0.0141885
0.00082085
-0.00756008
-0.0150742
0.0338994
28.0632
57.1041
71.3311
76.3759
75.3573
70.427
63.426
55.5661
47.6691
40.2083
33.4429
27.4811
22.3409
17.9845
14.3441
11.3383
8.88181
6.89253
5.29473
4.02093
3.01228
2.21863
1.59776
1.11466
0.74066
0.452499
0.231415
0.0625218
-0.066051
-0.163569
-0.237289
-0.29286
-0.334631
-0.365927
-0.389346
-0.406799
-0.419793
-0.429442
-0.436592
-0.44187
-0.445778
-0.448632
-0.450741
-0.452277
-0.453401
-0.454215
-0.454812
-0.455226
-0.455538
-0.455741
-0.455887
-0.455976
-0.456034
-0.456053
-0.456066
-0.456048
-0.456031
-0.455994
-0.455961
-0.455914
-0.455874
-0.455818
-0.45577
-0.455704
-0.455639
-0.455555
-0.455465
-0.455347
-0.45522
-0.455047
-0.454844
-0.454574
-0.454232
-0.453777
-0.453183
-0.452384
-0.45133
-0.449908
-0.448013
-0.445471
-0.442079
-0.43755
-0.431541
-0.423581
-0.41312
-0.399449
-0.381756
-0.359112
-0.330557
-0.295202
-0.252488
-0.202523
-0.146701
-0.0883156
-0.0332998
0.0106103
0.0366925
0.051793
0.0751584
0.131411
26.479
54.8419
68.4767
73.2573
72.2597
67.5556
60.867
53.3473
45.7821
38.6285
32.1378
26.4158
21.4811
17.2981
13.802
10.9149
8.55506
6.64372
5.10827
3.88393
2.91426
2.15111
1.55397
1.08923
0.72936
0.45202
0.239185
0.0765568
-0.0472721
-0.141213
-0.212243
-0.265795
-0.306056
-0.336225
-0.358803
-0.37563
-0.388158
-0.397462
-0.404356
-0.409444
-0.413212
-0.415962
-0.417994
-0.419473
-0.420556
-0.421338
-0.421913
-0.42231
-0.422609
-0.422803
-0.422941
-0.423024
-0.423077
-0.423092
-0.423101
-0.423081
-0.423063
-0.423025
-0.422991
-0.422944
-0.422906
-0.42285
-0.422804
-0.42274
-0.422677
-0.422595
-0.422507
-0.422392
-0.422268
-0.422099
-0.421901
-0.421639
-0.421307
-0.420865
-0.420292
-0.419519
-0.418502
-0.417132
-0.415306
-0.412857
-0.409592
-0.405231
-0.399447
-0.391787
-0.381724
-0.368579
-0.351577
-0.32983
-0.302428
-0.268528
-0.2276
-0.179726
-0.126128
-0.0696028
-0.0149422
0.0325144
0.0697654
0.107802
0.160196
0.218244
24.7179
52.1149
65.1671
69.6917
68.7299
64.2759
57.9361
50.7996
43.6109
36.8075
30.6309
25.1838
20.4849
16.501
13.1708
10.4202
8.17163
6.35012
4.88657
3.71935
2.79473
2.06688
1.49723
1.05378
0.710318
0.445558
0.242326
0.0869995
-0.0312947
-0.121057
-0.18894
-0.240129
-0.278621
-0.307466
-0.329056
-0.345149
-0.35713
-0.366028
-0.372622
-0.377486
-0.381089
-0.383719
-0.38566
-0.387073
-0.388107
-0.388853
-0.3894
-0.389779
-0.390062
-0.390245
-0.390374
-0.39045
-0.390498
-0.390508
-0.390513
-0.39049
-0.39047
-0.390431
-0.390398
-0.390351
-0.390313
-0.390259
-0.390214
-0.390152
-0.39009
-0.390011
-0.389926
-0.389815
-0.389694
-0.38953
-0.389338
-0.389085
-0.388764
-0.388339
-0.387788
-0.387047
-0.386074
-0.384763
-0.383018
-0.380678
-0.377559
-0.373393
-0.367871
-0.36056
-0.350958
-0.338422
-0.322218
-0.301504
-0.275424
-0.243184
-0.204283
-0.158766
-0.107668
-0.0532622
0.000823527
0.0515712
0.0993777
0.158572
0.236511
0.291332
22.8551
48.9948
61.4318
65.7039
64.7928
60.6116
54.6545
47.941
41.1706
34.7579
28.9326
23.7934
19.3589
15.5984
12.4546
9.85744
7.73405
6.01367
4.63114
3.52833
2.65455
1.96657
1.42801
1.00866
0.683795
0.433308
0.240984
0.0939593
-0.018035
-0.103036
-0.16733
-0.21582
-0.252289
-0.27962
-0.300079
-0.31533
-0.326686
-0.335119
-0.341369
-0.345978
-0.349392
-0.351883
-0.35372
-0.355057
-0.356035
-0.356739
-0.357257
-0.357613
-0.357878
-0.358048
-0.358168
-0.358236
-0.358278
-0.358283
-0.358284
-0.358258
-0.358236
-0.358197
-0.358162
-0.358116
-0.358079
-0.358026
-0.357983
-0.357922
-0.357863
-0.357786
-0.357705
-0.357596
-0.35748
-0.357322
-0.357137
-0.356893
-0.356586
-0.356179
-0.355655
-0.35495
-0.354026
-0.352782
-0.351129
-0.348913
-0.34596
-0.342016
-0.33679
-0.329873
-0.320794
-0.308947
-0.293642
-0.27409
-0.249491
-0.219104
-0.182452
-0.139544
-0.0912168
-0.0392183
0.0139537
0.067419
0.124518
0.201995
0.300788
0.348554
20.9349
45.5481
57.3068
61.322
60.4748
56.5882
51.0449
44.7911
38.4778
32.4933
27.0541
22.2537
18.1105
14.5964
11.6581
9.23039
7.24526
5.63664
4.34372
3.3122
2.49475
1.85099
1.34692
0.954354
0.650157
0.415555
0.235385
0.0976204
-0.00734132
-0.0870213
-0.147303
-0.192772
-0.226975
-0.252609
-0.271801
-0.286107
-0.29676
-0.304671
-0.310535
-0.314858
-0.318059
-0.320394
-0.322116
-0.323367
-0.324283
-0.32494
-0.325424
-0.325754
-0.325999
-0.326156
-0.326264
-0.326323
-0.326359
-0.326358
-0.326355
-0.326327
-0.326303
-0.326262
-0.326227
-0.326181
-0.326145
-0.326093
-0.326051
-0.325992
-0.325935
-0.325861
-0.325783
-0.325679
-0.325567
-0.325416
-0.325238
-0.325005
-0.324714
-0.324328
-0.323833
-0.323169
-0.322299
-0.321131
-0.31958
-0.317501
-0.314733
-0.311036
-0.30614
-0.299662
-0.291163
-0.280078
-0.265768
-0.247499
-0.224528
-0.196169
-0.161975
-0.121912
-0.0766229
-0.0273511
0.0244494
0.0797659
0.144336
0.236371
0.35061
0.388925
18.982
41.8329
52.8315
56.5772
55.8044
52.2322
47.1312
41.3709
35.5501
30.0287
25.0076
20.5747
16.7479
13.5015
10.7865
8.54315
6.70848
5.22157
4.02628
3.0725
2.3165
1.72102
1.25466
0.891382
0.609817
0.392622
0.225782
0.0981832
0.000947884
-0.0728816
-0.128747
-0.17089
-0.202598
-0.226362
-0.244155
-0.257419
-0.267297
-0.274631
-0.280069
-0.284074
-0.287041
-0.289204
-0.290798
-0.291955
-0.292801
-0.293407
-0.293853
-0.294156
-0.294379
-0.29452
-0.294617
-0.294666
-0.294694
-0.294688
-0.294681
-0.29465
-0.294623
-0.294581
-0.294546
-0.2945
-0.294464
-0.294414
-0.294373
-0.294316
-0.294262
-0.29419
-0.294116
-0.294016
-0.293909
-0.293764
-0.293596
-0.293375
-0.293102
-0.292739
-0.292276
-0.291656
-0.290847
-0.289761
-0.288322
-0.286393
-0.283827
-0.280402
-0.275867
-0.26987
-0.262005
-0.251752
-0.238524
-0.221647
-0.20044
-0.174272
-0.142727
-0.10573
-0.0637427
-0.0175469
0.032319
0.0883756
0.158157
0.260448
0.384429
0.412282
17.0099
37.8986
48.0461
51.5026
50.8115
47.5717
42.9388
37.7025
32.4066
27.3798
22.8064
18.7674
15.2798
12.3206
9.84563
7.80022
6.12725
4.77122
3.68098
2.81088
2.12109
1.57766
1.15199
0.82033
0.56322
0.364851
0.212439
0.0958515
0.00699148
-0.0604915
-0.111563
-0.150094
-0.179089
-0.200821
-0.217094
-0.229224
-0.238257
-0.244965
-0.249937
-0.253598
-0.256308
-0.258284
-0.259739
-0.260793
-0.261564
-0.262114
-0.262519
-0.262791
-0.26299
-0.263115
-0.263198
-0.263238
-0.263259
-0.263247
-0.263235
-0.263201
-0.263172
-0.263129
-0.263093
-0.263047
-0.263012
-0.262963
-0.262923
-0.262868
-0.262815
-0.262747
-0.262677
-0.262581
-0.262479
-0.262343
-0.262184
-0.261977
-0.261722
-0.261384
-0.260957
-0.260385
-0.259641
-0.258645
-0.257326
-0.25556
-0.253213
-0.250081
-0.245937
-0.240458
-0.233277
-0.22392
-0.211855
-0.19647
-0.177151
-0.153323
-0.124602
-0.0908794
-0.0524521
-0.00970453
0.0375816
0.0930839
0.165518
0.273435
0.401476
0.419049
15.0261
33.7864
42.9903
46.1327
45.5275
42.6357
38.4941
33.809
29.0672
24.5636
20.4644
16.8432
13.7156
11.0616
8.84142
7.00643
5.50541
4.2886
3.31017
2.52918
1.90994
1.42201
1.03974
0.741841
0.510861
0.332619
0.195645
0.0908476
0.0109611
-0.0497176
-0.0956462
-0.130301
-0.156383
-0.175931
-0.19057
-0.201482
-0.209607
-0.21564
-0.220112
-0.223401
-0.225837
-0.22761
-0.228916
-0.22986
-0.23055
-0.23104
-0.2314
-0.23164
-0.231814
-0.23192
-0.231989
-0.232018
-0.232031
-0.232013
-0.231997
-0.23196
-0.231928
-0.231884
-0.231847
-0.231802
-0.231766
-0.231719
-0.23168
-0.231627
-0.231577
-0.231511
-0.231445
-0.231354
-0.231258
-0.23113
-0.230981
-0.230789
-0.230554
-0.230244
-0.229854
-0.229334
-0.228659
-0.227759
-0.226569
-0.224977
-0.222864
-0.220046
-0.216319
-0.211394
-0.204942
-0.196539
-0.18571
-0.171909
-0.154589
-0.133236
-0.107498
-0.0772426
-0.0426269
-0.00371295
0.0402942
0.0938333
0.166195
0.275016
0.401695
0.4101
13.0344
29.5306
37.7024
40.5027
39.9849
37.4544
33.8243
29.7148
25.5527
21.5978
17.9965
14.8142
12.0653
9.73225
7.78038
6.16696
4.84705
3.77694
2.91637
2.22938
1.68459
1.25525
0.91883
0.656626
0.453282
0.296344
0.175721
0.083419
0.0130479
-0.0404113
-0.0808803
-0.111417
-0.134404
-0.151631
-0.164533
-0.174149
-0.181309
-0.186623
-0.190562
-0.193457
-0.1956
-0.197158
-0.198304
-0.199132
-0.199735
-0.200161
-0.200474
-0.200679
-0.200826
-0.200913
-0.200968
-0.200986
-0.200991
-0.200967
-0.200946
-0.200906
-0.200872
-0.200826
-0.200788
-0.200743
-0.200708
-0.200661
-0.200623
-0.200571
-0.200524
-0.200461
-0.200399
-0.200314
-0.200223
-0.200104
-0.199967
-0.199789
-0.199576
-0.199295
-0.198946
-0.19848
-0.19788
-0.19708
-0.196027
-0.19462
-0.192754
-0.190268
-0.186982
-0.182642
-0.176959
-0.169563
-0.160036
-0.147901
-0.132679
-0.11392
-0.0913093
-0.0646974
-0.0341331
0.00056117
0.0405679
0.0906909
0.160227
0.265337
0.385663
0.386654
11.0371
25.1599
32.2186
34.6481
34.2169
32.0587
28.9577
25.4449
21.885
18.5007
15.418
12.6934
10.3394
8.34121
6.66937
5.28727
4.15652
3.23969
2.50231
1.9136
1.44668
1.07867
0.790264
0.565451
0.391079
0.256484
0.153019
0.0738372
0.0134621
-0.0324091
-0.0671369
-0.0933427
-0.113072
-0.127856
-0.138929
-0.147179
-0.153322
-0.157879
-0.161257
-0.163736
-0.16557
-0.166901
-0.167879
-0.168584
-0.169096
-0.169454
-0.169718
-0.169886
-0.170005
-0.170072
-0.170111
-0.170118
-0.170114
-0.170084
-0.170059
-0.170015
-0.169979
-0.169933
-0.169894
-0.169847
-0.169812
-0.169767
-0.16973
-0.16968
-0.169634
-0.169575
-0.169516
-0.169436
-0.169352
-0.169242
-0.169117
-0.168956
-0.168765
-0.168515
-0.168208
-0.1678
-0.167277
-0.166584
-0.165674
-0.16446
-0.162854
-0.160715
-0.157891
-0.154164
-0.149288
-0.142943
-0.134776
-0.124378
-0.111342
-0.0952822
-0.0759244
-0.0531148
-0.0268251
0.00327667
0.0385725
0.0838532
0.147904
0.244975
0.354501
0.350203
9.03567
20.6984
26.5733
28.6043
28.2575
26.4806
23.9234
21.025
18.0862
15.2914
12.745
10.4938
8.54862
6.8973
5.51551
4.3731
3.4384
2.68047
2.07084
1.58408
1.19798
0.893637
0.655099
0.469139
0.324885
0.213529
0.127919
0.0623951
0.0124307
-0.0255342
-0.0542777
-0.075967
-0.0922982
-0.104533
-0.113697
-0.120523
-0.125603
-0.129369
-0.132161
-0.134205
-0.135717
-0.136811
-0.137614
-0.13819
-0.138607
-0.138895
-0.139106
-0.139236
-0.139327
-0.139372
-0.139396
-0.13939
-0.139379
-0.139343
-0.139312
-0.139266
-0.139227
-0.139179
-0.139139
-0.139093
-0.139058
-0.139012
-0.138976
-0.138928
-0.138884
-0.138828
-0.138773
-0.138699
-0.138621
-0.138521
-0.138408
-0.138264
-0.138097
-0.137879
-0.137616
-0.137268
-0.136827
-0.136243
-0.135482
-0.134469
-0.133133
-0.131357
-0.129013
-0.125923
-0.121883
-0.116629
-0.109872
-0.101271
-0.0904955
-0.0772243
-0.0612279
-0.0423597
-0.0205454
0.00461832
0.0345365
0.0736418
0.129757
0.214893
0.309795
0.302444
7.03098
16.1669
20.7986
22.4064
22.1411
20.7523
18.751
16.4815
14.1796
11.9897
9.99391
8.22932
6.70437
5.40969
4.32623
3.43041
2.69743
2.10305
1.62494
1.24317
0.940322
0.701585
0.514453
0.368559
0.255374
0.168
0.100822
0.0494044
0.0101957
-0.0195982
-0.0421549
-0.0591737
-0.0719898
-0.0815867
-0.0887753
-0.0941266
-0.098107
-0.101055
-0.103239
-0.104833
-0.106012
-0.10686
-0.107481
-0.107924
-0.108243
-0.108457
-0.108614
-0.108705
-0.108766
-0.10879
-0.108797
-0.10878
-0.108759
-0.108717
-0.108682
-0.108633
-0.108591
-0.108542
-0.108501
-0.108454
-0.108419
-0.108374
-0.108339
-0.108292
-0.10825
-0.108197
-0.108146
-0.108077
-0.108006
-0.107916
-0.107816
-0.10769
-0.107548
-0.107363
-0.107145
-0.106859
-0.106501
-0.106032
-0.105424
-0.104619
-0.103562
-0.102158
-0.10031
-0.0978759
-0.0946983
-0.0905681
-0.0852608
-0.0785089
-0.0700544
-0.0596456
-0.0471005
-0.0322907
-0.0151254
0.00479591
0.0287439
0.0604943
0.10653
0.176391
0.253509
0.24524
5.02382
11.5833
14.9252
16.0892
15.9024
14.9068
13.4707
11.8414
10.1884
8.61553
7.18175
5.91392
4.81817
3.88781
3.10917
2.46533
1.93853
1.51134
1.1677
0.893307
0.67562
0.504013
0.369495
0.264617
0.183251
0.120443
0.0721522
0.0351927
0.00701113
-0.0144029
-0.0306132
-0.0428398
-0.0520483
-0.0589378
-0.0640985
-0.0679355
-0.0707866
-0.0728936
-0.0744531
-0.0755856
-0.0764215
-0.0770174
-0.0774521
-0.0777575
-0.0779753
-0.0781152
-0.0782161
-0.0782672
-0.0782975
-0.0782992
-0.0782896
-0.0782602
-0.0782313
-0.0781831
-0.0781434
-0.0780912
-0.0780469
-0.077997
-0.0779545
-0.0779073
-0.0778715
-0.0778266
-0.0777919
-0.0777463
-0.0777069
-0.0776564
-0.0776089
-0.0775464
-0.0774823
-0.0774016
-0.0773153
-0.0772081
-0.0770906
-0.0769406
-0.0767684
-0.0765466
-0.0762748
-0.0759218
-0.0754715
-0.0748786
-0.0741064
-0.0730847
-0.0717449
-0.0699823
-0.0676867
-0.0647056
-0.0608801
-0.0560162
-0.0499309
-0.0424424
-0.0334195
-0.0227615
-0.0103861
0.00404193
0.0215284
0.0449499
0.0791521
0.131045
0.187908
0.18057
3.01492
6.9638
8.98234
9.68706
9.57606
8.97732
8.11298
7.13209
6.13668
5.18939
4.32571
3.56195
2.90183
2.3413
1.87213
1.48416
1.16674
0.909355
0.702313
0.537
0.405848
0.302464
0.221428
0.158254
0.109244
0.0714239
0.042347
0.0200997
0.00314131
-0.00974245
-0.0194911
-0.0268378
-0.032372
-0.0365036
-0.0395983
-0.0418924
-0.0435927
-0.0448428
-0.0457661
-0.0464274
-0.046914
-0.0472527
-0.0474972
-0.0476626
-0.0477775
-0.0478413
-0.0478856
-0.0478958
-0.0478953
-0.0478745
-0.0478481
-0.0478065
-0.0477689
-0.0477148
-0.0476704
-0.0476154
-0.0475687
-0.0475174
-0.0474738
-0.0474261
-0.0473897
-0.0473448
-0.0473104
-0.0472663
-0.0472286
-0.047181
-0.047137
-0.0470804
-0.0470234
-0.0469528
-0.0468803
-0.046792
-0.0467001
-0.0465853
-0.0464603
-0.0463034
-0.0461189
-0.0458843
-0.045594
-0.0452172
-0.044735
-0.0441019
-0.0432783
-0.0421986
-0.0407995
-0.0389857
-0.0366649
-0.0337173
-0.0300357
-0.0255088
-0.0200593
-0.0136211
-0.0061395
0.00260796
0.0132654
0.0276312
0.0487
0.080653
0.115494
0.110509
1.00496
2.32326
2.99822
3.23411
3.19723
2.99734
2.7087
2.38105
2.04847
1.73196
1.44326
1.18797
0.967341
0.779957
0.623061
0.493292
0.387181
0.301171
0.232004
0.176807
0.133017
0.0985161
0.0714861
0.0504285
0.0341003
0.0215216
0.0118564
0.00447451
-0.00114252
-0.00540507
-0.00862257
-0.0110364
-0.012856
-0.0141993
-0.0152049
-0.0159386
-0.0164752
-0.0168586
-0.0171382
-0.0173229
-0.0174562
-0.0175348
-0.0175869
-0.0176107
-0.0176213
-0.0176083
-0.0175954
-0.0175643
-0.0175328
-0.0174894
-0.0174462
-0.0173925
-0.0173461
-0.0172862
-0.0172372
-0.0171796
-0.0171304
-0.0170779
-0.0170331
-0.0169848
-0.0169478
-0.0169027
-0.0168685
-0.0168256
-0.0167895
-0.0167447
-0.0167042
-0.0166533
-0.0166035
-0.0165432
-0.0164847
-0.0164156
-0.0163496
-0.0162705
-0.0161932
-0.0161019
-0.0160057
-0.0158907
-0.015762
-0.0156033
-0.0154141
-0.0151732
-0.0148711
-0.0144809
-0.013987
-0.0133514
-0.0125493
-0.0115351
-0.0102778
-0.00873756
-0.00689237
-0.00471533
-0.00219138
0.00075999
0.00436092
0.00922261
0.0163592
0.0271698
0.0389264
0.0371879
-1.00535
-2.32422
-2.9996
-3.23575
-3.19912
-2.99949
-2.71112
-2.38392
-2.05192
-1.73593
-1.44803
-1.19337
-0.97322
-0.786347
-0.630033
-0.500817
-0.394977
-0.309083
-0.239948
-0.184684
-0.140835
-0.106232
-0.0790815
-0.0578846
-0.0414227
-0.0286751
-0.018863
-0.0113284
-0.00556473
-0.00117575
0.00216104
0.00469756
0.00660606
0.00806139
0.00915258
0.00998521
0.0106169
0.0111033
0.0114701
0.011764
0.0119854
0.0121679
0.012309
0.0124275
0.0125215
0.0126114
0.0126815
0.0127542
0.0128168
0.0128826
0.0129424
0.0130082
0.0130633
0.0131289
0.0131822
0.0132425
0.0132941
0.0133479
0.0133937
0.0134427
0.0134805
0.0135258
0.0135601
0.0136018
0.0136365
0.0136787
0.0137158
0.0137611
0.0138036
0.0138535
0.0138979
0.0139476
0.0139876
0.0140308
0.0140601
0.0140856
0.0140933
0.0140883
0.014055
0.0139948
0.0138902
0.0137376
0.0135166
0.013215
0.0128009
0.0122545
0.0115335
0.0106085
0.00943457
0.00797966
0.00621017
0.00411205
0.00165677
-0.00122703
-0.00475964
-0.0095537
-0.0166187
-0.0273545
-0.0390362
-0.0372234
-3.01531
-6.96475
-8.98372
-9.6887
-9.57795
-8.97947
-8.11541
-7.13498
-6.14014
-5.19338
-4.3305
-3.56737
-2.90773
-2.3477
-1.87911
-1.49169
-1.17454
-0.917265
-0.710254
-0.544874
-0.413662
-0.310177
-0.22902
-0.165707
-0.116564
-0.0785749
-0.0493523
-0.0269528
-0.00984827
0.00316169
0.0130293
0.0204982
0.0261212
0.030365
0.0335454
0.0359389
0.0377345
0.0390877
0.0400987
0.0408697
0.0414445
0.0418871
0.0422205
0.0424811
0.0426794
0.0428457
0.0429726
0.0430869
0.0431803
0.0432683
0.0433444
0.0434221
0.0434857
0.0435567
0.0436144
0.0436772
0.0437311
0.043786
0.0438329
0.0438827
0.0439213
0.0439669
0.0440015
0.0440422
0.0440757
0.0441154
0.0441493
0.0441891
0.0442243
0.0442638
0.044294
0.0443244
0.0443383
0.0443457
0.0443271
0.0442871
0.0442065
0.044082
0.0438871
0.043609
0.0432117
0.0426671
0.0419246
0.0409336
0.0396145
0.0378898
0.0356502
0.0327917
0.0291933
0.0247515
0.0193775
0.013018
0.00560485
-0.00307511
-0.0136644
-0.0279626
-0.0489598
-0.080838
-0.115604
-0.110544
-5.0242
-11.5842
-14.9266
-16.0908
-15.9043
-14.909
-13.4732
-11.8444
-10.1919
-8.61955
-7.18656
-5.91936
-4.82409
-3.89423
-3.11616
-2.47286
-1.94633
-1.51925
-1.17564
-0.901174
-0.683427
-0.511719
-0.37708
-0.272064
-0.190565
-0.127589
-0.0791547
-0.0420442
-0.0137176
0.00782226
0.024151
0.0364989
0.0457959
0.0527976
0.0580446
0.0619818
0.0649287
0.067139
0.0687871
0.0700301
0.0709543
0.0716541
0.0721779
0.0725789
0.0728804
0.0731221
0.0733052
0.0734606
0.0735845
0.0736941
0.0737861
0.0738754
0.0739473
0.0740236
0.0740853
0.0741507
0.0742066
0.0742628
0.0743106
0.0743613
0.0744008
0.0744468
0.0744818
0.0745219
0.0745543
0.0745917
0.0746224
0.074657
0.0746848
0.0747141
0.0747301
0.0747412
0.0747295
0.0747012
0.0746352
0.0745304
0.0743623
0.0741196
0.0737648
0.073271
0.0725842
0.0716516
0.0703928
0.0687192
0.0665038
0.0636118
0.0598675
0.0550924
0.0490901
0.0416863
0.0327386
0.0221588
0.00985138
-0.00450928
-0.021928
-0.0452818
-0.0794124
-0.13123
-0.188019
-0.180606
-7.03135
-16.1678
-20.7999
-22.408
-22.143
-20.7545
-18.7535
-16.4845
-14.1831
-11.9938
-9.99876
-8.2348
-6.71033
-5.41614
-4.33324
-3.43794
-2.70522
-2.11095
-1.63286
-1.25103
-0.948118
-0.709281
-0.522029
-0.375997
-0.26268
-0.175139
-0.107821
-0.0562537
-0.0169014
0.0130175
0.0356919
0.0528308
0.0657349
0.0754443
0.0827198
0.0881726
0.0922494
0.095301
0.0975745
0.0992808
0.100548
0.1015
0.102211
0.10275
0.103152
0.103468
0.103706
0.103902
0.104056
0.104187
0.104294
0.104394
0.104474
0.104555
0.104621
0.104689
0.104747
0.104804
0.104853
0.104904
0.104945
0.104991
0.105027
0.105067
0.105098
0.105133
0.105161
0.105191
0.105211
0.10523
0.105232
0.105224
0.105187
0.105124
0.105011
0.104843
0.104589
0.10423
0.103718
0.103012
0.102041
0.100727
0.0989606
0.0966156
0.0935184
0.0894773
0.0842513
0.0775879
0.0692159
0.0588914
0.0464209
0.0316887
0.0145908
-0.00526349
-0.0291442
-0.0608269
-0.106791
-0.176577
-0.25362
-0.245276
-9.03602
-20.6993
-26.5746
-28.6059
-28.2595
-26.4828
-23.926
-21.028
-18.0898
-15.2956
-12.7499
-10.4994
-8.55463
-6.9038
-5.52255
-4.38064
-3.44618
-2.68836
-2.07875
-1.59193
-1.20576
-0.90132
-0.662662
-0.476565
-0.33218
-0.220659
-0.134912
-0.0692414
-0.0191357
0.0189533
0.0478136
0.0696217
0.0860403
0.0983877
0.107639
0.114568
0.119746
0.123617
0.126499
0.128657
0.130258
0.131456
0.132348
0.133022
0.133523
0.133911
0.134203
0.134438
0.13462
0.134771
0.134894
0.135004
0.135092
0.135178
0.135247
0.135317
0.135377
0.135435
0.135485
0.135538
0.135579
0.135626
0.135663
0.135702
0.135733
0.135766
0.135791
0.135816
0.135829
0.135838
0.135827
0.1358
0.135738
0.135641
0.135482
0.135252
0.134914
0.134441
0.133776
0.132864
0.131614
0.129929
0.127667
0.124666
0.120707
0.115542
0.108866
0.100354
0.0896602
0.0764726
0.06055
0.0417586
0.0200108
-0.00508609
-0.0349377
-0.0739752
-0.130019
-0.21508
-0.309907
-0.302481
-11.0375
-25.1607
-32.2199
-34.6497
-34.2189
-32.061
-28.9603
-25.448
-21.8886
-18.5049
-15.4229
-12.699
-10.3454
-8.34776
-6.67643
-5.29481
-4.16429
-3.24757
-2.51021
-1.92143
-1.45445
-1.08634
-0.797812
-0.572863
-0.398361
-0.263603
-0.160007
-0.0806801
-0.0201664
0.0258277
0.0606714
0.0869943
0.10681
0.121707
0.132869
0.141224
0.147465
0.152127
0.155598
0.158191
0.160115
0.161551
0.162619
0.163422
0.164019
0.164477
0.16482
0.165093
0.165303
0.165474
0.16561
0.165731
0.165826
0.165916
0.165989
0.166061
0.166122
0.166182
0.166233
0.166286
0.166328
0.166376
0.166414
0.166453
0.166483
0.166515
0.166537
0.166557
0.166563
0.166563
0.166538
0.166493
0.166407
0.166277
0.166074
0.165783
0.165364
0.164782
0.163968
0.162855
0.161337
0.159291
0.156549
0.152912
0.148117
0.141861
0.133776
0.123465
0.110511
0.0945335
0.0752486
0.0525149
0.0262907
-0.00374453
-0.0389746
-0.0841873
-0.148167
-0.245162
-0.354614
-0.35024
-13.0347
-29.5314
-37.7037
-40.5043
-39.9869
-37.4567
-33.8269
-29.718
-25.5565
-21.602
-18.0015
-14.8199
-12.0714
-9.73885
-7.78749
-6.1745
-4.85481
-3.7848
-2.92425
-2.2372
-1.69234
-1.2629
-0.92636
-0.664022
-0.460551
-0.303452
-0.182702
-0.0902581
-0.0197517
0.0338292
0.074413
0.105065
0.128139
0.14548
0.158471
0.168193
0.175453
0.180873
0.184907
0.187917
0.19015
0.191815
0.193051
0.193978
0.194666
0.195191
0.195584
0.195893
0.196129
0.196319
0.196468
0.196598
0.1967
0.196795
0.196871
0.196944
0.197007
0.197068
0.197119
0.197174
0.197217
0.197266
0.197304
0.197344
0.197374
0.197404
0.197423
0.197439
0.197438
0.197428
0.197391
0.197328
0.197219
0.197057
0.196812
0.196463
0.195966
0.195278
0.194322
0.193016
0.19124
0.188847
0.185643
0.181394
0.175794
0.168487
0.159042
0.146993
0.131852
0.113175
0.0906363
0.064099
0.0335993
-0.00102891
-0.0409706
-0.0910257
-0.160491
-0.265525
-0.385776
-0.386691
-15.0263
-33.7871
-42.9916
-46.1343
-45.5295
-42.6381
-38.4968
-33.8123
-29.071
-24.568
-20.4695
-16.8489
-13.7218
-11.0682
-8.84856
-7.01398
-5.51316
-4.29644
-3.31802
-2.53698
-1.91767
-1.42964
-1.04725
-0.749221
-0.518114
-0.339715
-0.202619
-0.0976826
-0.0176644
0.0431343
0.0891768
0.123945
0.150113
0.169775
0.184505
0.195525
0.203752
0.209892
0.21446
0.217867
0.220393
0.222274
0.22367
0.224715
0.22549
0.226079
0.226519
0.226861
0.227123
0.227331
0.227492
0.22763
0.227738
0.227836
0.227916
0.227991
0.228054
0.228116
0.228169
0.228224
0.228269
0.228318
0.228358
0.228398
0.228428
0.228456
0.228473
0.228485
0.228477
0.228458
0.228409
0.22833
0.228199
0.228006
0.22772
0.227317
0.226745
0.225956
0.224864
0.223375
0.221352
0.218629
0.214985
0.210152
0.203783
0.195469
0.184723
0.171008
0.153768
0.132495
0.106828
0.0766462
0.042094
0.0032456
-0.0406973
-0.0941685
-0.16646
-0.275205
-0.401809
-0.410137
-17.0102
-37.8993
-48.0473
-51.5042
-50.8135
-47.5741
-42.9416
-37.7058
-32.4105
-27.3843
-22.8116
-18.7732
-15.286
-12.3274
-9.85281
-7.80778
-6.13499
-4.77904
-3.68882
-2.81865
-2.1288
-1.58527
-1.15947
-0.82769
-0.570457
-0.371935
-0.219406
-0.102682
-0.0136945
0.0539066
0.105091
0.143734
0.172815
0.194662
0.211026
0.223267
0.232403
0.239219
0.24429
0.248068
0.250871
0.252955
0.254502
0.255658
0.256514
0.257163
0.257648
0.258021
0.258307
0.258531
0.258704
0.25885
0.258963
0.259065
0.259146
0.259223
0.259288
0.25935
0.259404
0.25946
0.259506
0.259557
0.259598
0.259638
0.259667
0.259695
0.259709
0.259717
0.259704
0.259676
0.259615
0.25952
0.259368
0.259147
0.258823
0.258367
0.257725
0.256841
0.25562
0.253958
0.251703
0.248668
0.244608
0.239223
0.232125
0.222858
0.210875
0.195576
0.176336
0.152588
0.123936
0.0902854
0.0519206
0.0092379
-0.0379848
-0.0934193
-0.165783
-0.273625
-0.401591
-0.419087
-18.9822
-41.8336
-52.8326
-56.5788
-55.8064
-52.2347
-47.1341
-41.3743
-35.5541
-30.0332
-25.0129
-20.5806
-16.7542
-13.5083
-10.7938
-8.55072
-6.71621
-5.22937
-4.0341
-3.08025
-2.32418
-1.7286
-1.26213
-0.898723
-0.617038
-0.399694
-0.232742
-0.105009
-0.00765063
0.0662947
0.122272
0.164525
0.196319
0.220199
0.238085
0.251461
0.261443
0.268888
0.274426
0.27855
0.28161
0.283884
0.28557
0.286829
0.287762
0.288467
0.288992
0.289396
0.289702
0.289942
0.290125
0.290278
0.290396
0.290501
0.290584
0.290662
0.290728
0.290792
0.290846
0.290903
0.290951
0.291002
0.291044
0.291085
0.291115
0.291141
0.291153
0.291157
0.291138
0.291102
0.29103
0.290921
0.290749
0.290501
0.290141
0.289637
0.288929
0.287957
0.286616
0.284791
0.282319
0.278993
0.274543
0.268641
0.26086
0.250698
0.237552
0.22076
0.199632
0.173542
0.142065
0.105139
0.0632129
0.0170813
-0.032722
-0.0887108
-0.158422
-0.260638
-0.384544
-0.412319
-20.9351
-45.5488
-57.3079
-61.3236
-60.4768
-56.5907
-51.0478
-44.7946
-38.4819
-32.498
-27.0594
-22.2596
-18.117
-14.6033
-11.6653
-9.23796
-7.25297
-5.64442
-4.35151
-3.31993
-2.50241
-1.85855
-1.35437
-0.961675
-0.657362
-0.422616
-0.242338
-0.104442
0.000638769
0.0804319
0.140824
0.186401
0.220692
0.246443
0.265728
0.280148
0.290907
0.29893
0.304897
0.309339
0.312634
0.315083
0.316897
0.318252
0.319255
0.320011
0.320575
0.321005
0.32133
0.321584
0.321776
0.321936
0.322058
0.322165
0.322251
0.322329
0.322396
0.32246
0.322515
0.322573
0.322623
0.322675
0.322718
0.32276
0.32279
0.322815
0.322825
0.322826
0.322801
0.322758
0.322676
0.322553
0.322363
0.32209
0.321697
0.321149
0.320379
0.319325
0.317873
0.315899
0.313226
0.30963
0.304821
0.29844
0.290025
0.279032
0.264804
0.24662
0.223727
0.195445
0.161318
0.121324
0.0760953
0.026887
-0.0248517