/*--------------------------------*- C++ -*----------------------------------*\
  =========                 |
  \\      /  F ield         | OpenFOAM: The Open Source CFD Toolbox
   \\    /   O peration     | Website:  https://openfoam.org
    \\  /    A nd           | Version:  7
     \\/     M anipulation  |
\*---------------------------------------------------------------------------*/
FoamFile
{
    version     2.0;
    format      ascii;
    class       surfaceScalarField;
    location    "1";
    object      phi;
}
// * * * * * * * * * * * * * * * * * * * * * * * * * * * * * * * * * * * * * //

dimensions      [0 3 -1 0 0 0 0];

internalField   nonuniform List<scalar> 
7860
(
0.00283445
0.00216555
0.00262136
0.000213093
0.00260899
1.23738e-05
0.00260647
2.52031e-06
0.00260916
-2.69654e-06
0.00260787
1.29405e-06
0.00260674
1.1276e-06
0.00260514
1.60052e-06
0.00260388
1.26246e-06
0.00260274
1.13537e-06
0.00260183
9.19201e-07
0.00260105
7.78746e-07
0.0026004
6.45356e-07
0.00259985
5.44392e-07
0.0025994
4.56953e-07
0.00259902
3.81438e-07
0.0025987
3.16562e-07
0.00259844
2.61555e-07
0.00259822
2.15291e-07
0.00259805
1.75699e-07
0.0025979
1.4202e-07
0.00259779
1.12923e-07
0.0025977
8.94016e-08
0.00259763
7.12055e-08
0.00259757
5.53783e-08
0.00259753
4.23518e-08
0.0025975
3.2235e-08
0.00259747
2.43339e-08
0.00259745
1.93402e-08
0.00259744
1.43464e-08
0.00259743
1.00205e-08
0.00259742
7.67208e-09
0.00259742
5.96074e-09
0.00259741
4.02892e-09
0.00259741
3.10782e-09
0.00259741
2.40027e-09
0.00259741
1.81419e-09
0.0025974
7.0784e-10
0.0025974
2.24984e-10
0.0025974
7.20417e-10
0.0025974
1.03089e-09
0.0025974
-2.8248e-10
0.0025974
-6.90507e-10
0.0025974
-4.89093e-10
0.0025974
6.02317e-11
0.0025974
3.59318e-10
0.0025974
7.81225e-11
0.0025974
-4.69563e-10
0.0025974
4.25662e-11
0.0025974
-4.51516e-11
0.0025974
-7.52615e-11
0.0025974
-1.40373e-10
0.0025974
-5.00477e-12
0.0025974
7.29735e-11
0.0025974
1.64657e-10
0.0025974
-3.60677e-10
0.0025974
-3.24732e-10
0.0025974
-1.07486e-10
0.0025974
1.70925e-10
0.0025974
-3.46129e-11
0.0025974
2.46788e-11
0.0025974
-1.75118e-10
0.0025974
7.49897e-11
0.0025974
1.56897e-10
0.0025974
2.61014e-10
0.0025974
-6.44065e-11
0.0025974
-8.75926e-11
0.0025974
-7.74664e-11
0.0025974
1.33307e-10
0.0025974
-4.60838e-11
0.0025974
-1.48872e-11
0.0025974
-1.81559e-10
0.0025974
3.77347e-11
0.0025974
2.33595e-10
0.0025974
2.79116e-10
0.0025974
1.13748e-11
0.0025974
2.50474e-10
0.0025974
2.85164e-10
0.0025974
4.15654e-10
0.0025974
2.51793e-10
0.0025974
2.71931e-10
0.0025974
6.09077e-10
0.0025974
1.17405e-09
0.0025974
1.44301e-09
0.00259739
2.21376e-09
0.00259739
3.23712e-09
0.00259739
4.91173e-09
0.00259738
7.12407e-09
0.00259737
1.01919e-08
0.00259735
1.42155e-08
0.00259733
1.99167e-08
0.00259731
2.66325e-08
0.00259727
3.39858e-08
0.00259724
3.77865e-08
0.0025972
3.38024e-08
0.00259718
2.31878e-08
0.00259708
1.02011e-07
0.00259638
6.96297e-07
0.00259378
2.60325e-06
-1.18923e-06
0.00456786
0.00259769
0.00437559
0.00040536
0.00434676
4.12038e-05
0.00434298
6.30138e-06
0.00434597
-5.68656e-06
0.00434442
2.84413e-06
0.00434276
2.78696e-06
0.00434051
3.8498e-06
0.00433867
3.10816e-06
0.00433702
2.78075e-06
0.00433567
2.26972e-06
0.00433452
1.92669e-06
0.00433356
1.60533e-06
0.00433275
1.35531e-06
0.00433207
1.13872e-06
0.0043315
9.53845e-07
0.00433102
7.96157e-07
0.00433062
6.61007e-07
0.00433029
5.45554e-07
0.00433002
4.45744e-07
0.0043298
3.62557e-07
0.00432962
2.91575e-07
0.00432948
2.31389e-07
0.00432937
1.83379e-07
0.00432928
1.43354e-07
0.00432921
1.10743e-07
0.00432916
8.54622e-08
0.00432912
6.48239e-08
0.00432909
5.00616e-08
0.00432907
3.75913e-08
0.00432905
2.74705e-08
0.00432904
2.06292e-08
0.00432903
1.59019e-08
0.00432902
1.12045e-08
0.00432902
8.5146e-09
0.00432901
6.08485e-09
0.00432901
4.63129e-09
0.00432901
2.85302e-09
0.00432901
1.77465e-09
0.004329
1.49464e-09
0.004329
1.84534e-09
0.004329
1.90857e-10
0.004329
-1.07201e-10
0.004329
-6.80816e-11
0.004329
4.58452e-10
0.004329
8.05263e-10
0.004329
8.77205e-10
0.004329
-2.51649e-10
0.004329
3.09935e-10
0.004329
1.54452e-10
0.004329
3.60739e-10
0.004329
1.59773e-10
0.004329
1.3971e-10
0.004329
-2.04295e-10
0.004329
2.60118e-10
0.004329
-2.84699e-10
0.004329
-8.16716e-11
0.004329
-1.16154e-10
0.004329
2.27585e-10
0.004329
-2.00446e-10
0.004329
1.2446e-10
0.004329
-2.08612e-10
0.004329
1.38575e-10
0.004329
1.84736e-11
0.004329
3.59768e-10
0.004329
-4.33904e-11
0.004329
4.41727e-11
0.004329
-1.15336e-10
0.004329
2.87253e-10
0.004329
-2.06552e-11
0.004329
2.52381e-10
0.004329
-1.13401e-10
0.004329
1.98178e-10
0.004329
4.52617e-10
0.004329
8.04726e-10
0.004329
4.2679e-10
0.004329
7.20778e-10
0.004329
6.12214e-10
0.004329
9.53043e-10
0.004329
8.24813e-10
0.004329
9.92768e-10
0.004329
1.44761e-09
0.00432899
2.78624e-09
0.00432899
3.85144e-09
0.00432899
6.01362e-09
0.00432898
8.58858e-09
0.00432898
1.25857e-08
0.00432897
1.81106e-08
0.00432895
2.58989e-08
0.00432893
3.60471e-08
0.0043289
5.02035e-08
0.00432886
6.72702e-08
0.0043288
8.73094e-08
0.00432874
1.01116e-07
0.00432867
1.05861e-07
0.00432858
1.12409e-07
0.00432826
4.18392e-07
0.00432693
2.02922e-06
0.00432235
7.1845e-06
7.91221e-06
0.00507225
0.00252544
0.00495569
0.000521924
0.00492299
7.38942e-05
0.00492073
8.56479e-06
0.00492255
-7.5112e-06
0.00492139
4.00594e-06
0.0049197
4.47941e-06
0.0049176
5.95678e-06
0.00491579
4.91684e-06
0.00491419
4.375e-06
0.00491287
3.59456e-06
0.00491174
3.05082e-06
0.0049108
2.55089e-06
0.00491
2.15546e-06
0.00490932
1.81425e-06
0.00490875
1.52386e-06
0.00490827
1.27562e-06
0.00490787
1.06216e-06
0.00490754
8.796e-07
0.00490726
7.2058e-07
0.00490704
5.87291e-07
0.00490685
4.74613e-07
0.00490671
3.78012e-07
0.00490659
2.99457e-07
0.0049065
2.35012e-07
0.00490643
1.8272e-07
0.00490637
1.41454e-07
0.00490633
1.07604e-07
0.0049063
8.26465e-08
0.00490627
6.24708e-08
0.00490625
4.63797e-08
0.00490624
3.46149e-08
0.00490623
2.62985e-08
0.00490622
1.88647e-08
0.00490622
1.43795e-08
0.00490621
1.0048e-08
0.00490621
7.4471e-09
0.00490621
5.08126e-09
0.00490621
3.5277e-09
0.0049062
2.36072e-09
0.0049062
2.24095e-09
0.0049062
4.42364e-10
0.0049062
3.78934e-10
0.0049062
5.79433e-10
0.0049062
1.09016e-09
0.0049062
9.67521e-10
0.0049062
1.26447e-09
0.0049062
1.39789e-11
0.0049062
5.21449e-10
0.0049062
3.64077e-10
0.0049062
6.16852e-10
0.0049062
2.35287e-10
0.0049062
1.73817e-10
0.0049062
-5.04053e-10
0.0049062
1.72317e-10
0.0049062
-2.71847e-10
0.0049062
4.79866e-11
0.0049062
-1.69156e-10
0.0049062
2.37422e-10
0.0049062
-2.81075e-10
0.0049062
1.59956e-10
0.0049062
-2.00945e-10
0.0049062
3.13211e-10
0.0049062
-5.82791e-11
0.0049062
2.67564e-10
0.0049062
-1.21208e-10
0.0049062
4.85332e-11
0.0049062
-1.68198e-10
0.0049062
3.98684e-10
0.0049062
-5.84739e-11
0.0049062
4.10216e-10
0.0049062
1.46146e-10
0.0049062
5.95781e-10
0.0049062
8.06561e-10
0.0049062
1.28961e-09
0.0049062
8.90042e-10
0.0049062
1.19896e-09
0.0049062
9.69659e-10
0.0049062
1.34358e-09
0.0049062
1.326e-09
0.0049062
1.82265e-09
0.0049062
2.50709e-09
0.00490619
4.51259e-09
0.00490619
6.40019e-09
0.00490619
9.892e-09
0.00490618
1.41562e-08
0.00490617
2.04239e-08
0.00490616
2.91506e-08
0.00490615
4.17162e-08
0.00490613
5.81989e-08
0.0049061
8.09024e-08
0.00490605
1.08732e-07
0.004906
1.432e-07
0.00490593
1.71952e-07
0.00490583
2.02605e-07
0.00490569
2.58386e-07
0.00490521
8.92944e-07
0.00490359
3.64963e-06
0.00489775
1.30287e-05
2.27421e-05
0.0052101
0.00231533
0.0051398
0.000592231
0.00511272
0.000100975
0.00511158
9.69576e-06
0.00511267
-8.60063e-06
0.00511184
4.83925e-06
0.00511036
5.95778e-06
0.0051086
7.72451e-06
0.00510704
6.47549e-06
0.00510567
5.74465e-06
0.00510452
4.74322e-06
0.00510354
4.02618e-06
0.00510272
3.37518e-06
0.00510202
2.85572e-06
0.00510142
2.40906e-06
0.00510092
2.02757e-06
0.00510049
1.70161e-06
0.00510013
1.42017e-06
0.00509983
1.17965e-06
0.00509958
9.69451e-07
0.00509938
7.91326e-07
0.00509921
6.41278e-07
0.00509908
5.12716e-07
0.00509897
4.06842e-07
0.00509888
3.20184e-07
0.00509882
2.50076e-07
0.00509877
1.93997e-07
0.00509873
1.47952e-07
0.00509869
1.13589e-07
0.00509867
8.62597e-08
0.00509865
6.45556e-08
0.00509864
4.81622e-08
0.00509863
3.62466e-08
0.00509862
2.61477e-08
0.00509862
1.98816e-08
0.00509861
1.40514e-08
0.00509861
1.03873e-08
0.00509861
7.26042e-09
0.00509861
4.9959e-09
0.0050986
3.1305e-09
0.0050986
2.61645e-09
0.0050986
8.49618e-10
0.0050986
8.37634e-10
0.0050986
1.16342e-09
0.0050986
1.71358e-09
0.0050986
1.14359e-09
0.0050986
1.41495e-09
0.0050986
2.5958e-10
0.0050986
7.2864e-10
0.0050986
6.16412e-10
0.0050986
7.53377e-10
0.0050986
1.97301e-10
0.0050986
1.41541e-10
0.0050986
-6.62481e-10
0.0050986
4.38311e-11
0.0050986
-2.81636e-10
0.0050986
6.44254e-11
0.0050986
-2.22589e-10
0.0050986
2.56021e-10
0.0050986
-2.10216e-10
0.0050986
2.13857e-10
0.0050986
-1.94322e-10
0.0050986
4.10142e-10
0.0050986
-6.44722e-11
0.0050986
1.61767e-10
0.0050986
-1.87281e-10
0.0050986
-2.50442e-11
0.0050986
-2.52578e-10
0.0050986
4.56486e-10
0.0050986
2.17217e-11
0.0050986
5.59219e-10
0.0050986
4.21213e-10
0.0050986
9.90488e-10
0.0050986
1.20765e-09
0.0050986
1.68832e-09
0.0050986
1.27545e-09
0.0050986
1.56775e-09
0.0050986
1.32452e-09
0.0050986
1.72347e-09
0.0050986
1.85157e-09
0.0050986
2.62684e-09
0.0050986
3.60786e-09
0.00509859
6.14366e-09
0.00509859
8.77851e-09
0.00509859
1.33279e-08
0.00509858
1.91571e-08
0.00509858
2.75458e-08
0.00509857
3.91335e-08
0.00509855
5.59118e-08
0.00509853
7.81008e-08
0.00509851
1.08577e-07
0.00509847
1.46629e-07
0.00509841
1.96041e-07
0.00509834
2.43618e-07
0.00509823
3.14334e-07
0.00509805
4.43592e-07
0.00509748
1.46082e-06
0.00509583
5.30311e-06
0.00508956
1.92936e-05
3.78187e-05
0.00523344
0.00208189
0.00519436
0.000631312
0.00517371
0.000121623
0.0051734
1.00085e-05
0.00517403
-9.2328e-06
0.00517352
5.35757e-06
0.00517233
7.14699e-06
0.00517094
9.11225e-06
0.00516969
7.72449e-06
0.00516859
6.84365e-06
0.00516766
5.67276e-06
0.00516687
4.81853e-06
0.0051662
4.04862e-06
0.00516562
3.43022e-06
0.00516513
2.89743e-06
0.00516472
2.44551e-06
0.00516436
2.05753e-06
0.00516406
1.72111e-06
0.00516381
1.4333e-06
0.00516359
1.18158e-06
0.00516342
9.66273e-07
0.00516327
7.84725e-07
0.00516316
6.29629e-07
0.00516306
5.00814e-07
0.00516299
3.9534e-07
0.00516293
3.09802e-07
0.00516288
2.40617e-07
0.00516285
1.83957e-07
0.00516282
1.41341e-07
0.0051628
1.07719e-07
0.00516278
8.10994e-08
0.00516277
6.05622e-08
0.00516276
4.53899e-08
0.00516275
3.28145e-08
0.00516275
2.48608e-08
0.00516275
1.77699e-08
0.00516274
1.3253e-08
0.00516274
9.40141e-09
0.00516274
6.38119e-09
0.00516274
3.84839e-09
0.00516274
3.03687e-09
0.00516274
1.44426e-09
0.00516274
1.49348e-09
0.00516274
1.78068e-09
0.00516274
2.32971e-09
0.00516274
1.41473e-09
0.00516274
1.6001e-09
0.00516274
5.64074e-10
0.00516274
1.00334e-09
0.00516274
9.08948e-10
0.00516274
9.07447e-10
0.00516274
1.52345e-10
0.00516274
1.17071e-10
0.00516273
-7.10796e-10
0.00516273
-1.62817e-11
0.00516273
-2.569e-10
0.00516273
1.15038e-10
0.00516273
-2.42414e-10
0.00516273
3.01639e-10
0.00516273
-6.23268e-11
0.00516273
3.18039e-10
0.00516273
-1.92296e-10
0.00516273
4.23282e-10
0.00516273
-1.05219e-10
0.00516273
7.01123e-11
0.00516273
-2.29137e-10
0.00516273
-5.51874e-11
0.00516273
-3.20639e-10
0.00516273
4.75259e-10
0.00516273
1.54946e-10
0.00516273
7.76422e-10
0.00516273
6.97449e-10
0.00516273
1.32584e-09
0.00516273
1.54232e-09
0.00516273
2.01999e-09
0.00516273
1.59795e-09
0.00516273
1.89049e-09
0.00516273
1.65835e-09
0.00516273
2.10159e-09
0.00516273
2.37942e-09
0.00516273
3.39496e-09
0.00516273
4.606e-09
0.00516273
7.55635e-09
0.00516273
1.08439e-08
0.00516272
1.62626e-08
0.00516272
2.3412e-08
0.00516271
3.36382e-08
0.00516271
4.7651e-08
0.00516269
6.79407e-08
0.00516268
9.49395e-08
0.00516265
1.32113e-07
0.00516262
1.79404e-07
0.00516257
2.4359e-07
0.0051625
3.12646e-07
0.00516239
4.32903e-07
0.00516218
6.50883e-07
0.00516159
2.04505e-06
0.00516003
6.87002e-06
0.00515414
2.51782e-05
5.09505e-05
0.00522271
0.00185918
0.0052067
0.000647323
0.00519199
0.000136333
0.00519223
9.77146e-06
0.00519259
-9.58943e-06
0.00519234
5.60038e-06
0.00519146
8.0306e-06
0.00519045
1.01207e-05
0.00518952
8.65835e-06
0.0051887
7.66672e-06
0.00518799
6.37712e-06
0.00518739
5.42195e-06
0.00518687
4.56552e-06
0.00518643
3.87396e-06
0.00518605
3.27753e-06
0.00518572
2.77255e-06
0.00518544
2.33843e-06
0.0051852
1.96034e-06
0.005185
1.63618e-06
0.00518482
1.35269e-06
0.00518468
1.10836e-06
0.00518457
9.01673e-07
0.00518447
7.25634e-07
0.00518439
5.78538e-07
0.00518433
4.57412e-07
0.00518428
3.59446e-07
0.00518424
2.79886e-07
0.00518421
2.14548e-07
0.00518419
1.65054e-07
0.00518417
1.26128e-07
0.00518415
9.54302e-08
0.00518414
7.13039e-08
0.00518414
5.34032e-08
0.00518413
3.86797e-08
0.00518413
2.92344e-08
0.00518412
2.10542e-08
0.00518412
1.58306e-08
0.00518412
1.13061e-08
0.00518412
7.64377e-09
0.00518412
4.50778e-09
0.00518411
3.5312e-09
0.00518411
2.15705e-09
0.00518411
2.27001e-09
0.00518411
2.32385e-09
0.00518411
2.84966e-09
0.00518411
1.71283e-09
0.00518411
1.84823e-09
0.00518411
8.89467e-10
0.00518411
1.30425e-09
0.00518411
1.15099e-09
0.00518411
1.05778e-09
0.00518411
1.04109e-10
0.00518411
1.201e-10
0.00518411
-6.97128e-10
0.00518411
-2.09241e-11
0.00518411
-2.4855e-10
0.00518411
1.9661e-10
0.00518411
-2.51048e-10
0.00518411
3.51304e-10
0.00518411
7.29087e-11
0.00518411
4.47522e-10
0.00518411
-2.10691e-10
0.00518411
3.78061e-10
0.00518411
-1.81459e-10
0.00518411
1.32722e-11
0.00518411
-2.6255e-10
0.00518411
-1.06852e-11
0.00518411
-3.6063e-10
0.00518411
4.88565e-10
0.00518411
3.08174e-10
0.00518411
1.05025e-09
0.00518411
9.64292e-10
0.00518411
1.6134e-09
0.00518411
1.78849e-09
0.00518411
2.31151e-09
0.00518411
1.8819e-09
0.00518411
2.20084e-09
0.00518411
1.97086e-09
0.00518411
2.47348e-09
0.00518411
2.85121e-09
0.00518411
4.08586e-09
0.00518411
5.42609e-09
0.00518411
8.68415e-09
0.00518411
1.25068e-08
0.0051841
1.86389e-08
0.0051841
2.68512e-08
0.0051841
3.85724e-08
0.00518409
5.45125e-08
0.00518408
7.75754e-08
0.00518407
1.08422e-07
0.00518405
1.51138e-07
0.00518402
2.06461e-07
0.00518398
2.84688e-07
0.00518392
3.75689e-07
0.0051838
5.5038e-07
0.00518359
8.61484e-07
0.00518302
2.61549e-06
0.00518164
8.24915e-06
0.00517659
3.02236e-05
6.15838e-05
0.00520403
0.00165515
0.00520559
0.000645758
0.00519622
0.000145711
0.00519681
9.17837e-06
0.00519699
-9.76591e-06
0.00519698
5.60888e-06
0.00519639
8.6173e-06
0.00519574
1.07736e-05
0.00519511
9.28984e-06
0.00519455
8.2254e-06
0.00519406
6.86329e-06
0.00519364
5.84183e-06
0.00519328
4.92944e-06
0.00519296
4.18936e-06
0.00519269
3.55045e-06
0.00519245
3.00904e-06
0.00519225
2.54365e-06
0.00519207
2.13685e-06
0.00519192
1.78702e-06
0.00519179
1.48114e-06
0.00519168
1.21605e-06
0.0051916
9.90941e-07
0.00519152
7.99654e-07
0.00519146
6.39094e-07
0.00519141
5.06037e-07
0.00519137
3.98345e-07
0.00519134
3.10888e-07
0.00519132
2.39057e-07
0.0051913
1.84191e-07
0.00519129
1.40985e-07
0.00519127
1.07071e-07
0.00519126
8.00283e-08
0.00519126
5.99773e-08
0.00519125
4.36074e-08
0.00519125
3.28148e-08
0.00519125
2.37237e-08
0.00519125
1.79083e-08
0.00519124
1.28403e-08
0.00519124
8.7241e-09
0.00519124
5.10745e-09
0.00519124
4.0304e-09
0.00519124
2.8801e-09
0.00519124
3.05398e-09
0.00519124
2.75708e-09
0.00519124
3.20432e-09
0.00519124
1.97716e-09
0.00519124
2.11424e-09
0.00519124
1.19982e-09
0.00519124
1.55777e-09
0.00519124
1.29069e-09
0.00519124
1.14873e-09
0.00519124
6.19057e-11
0.00519124
1.36568e-10
0.00519124
-6.63055e-10
0.00519124
-2.27257e-11
0.00519124
-2.72038e-10
0.00519124
2.76847e-10
0.00519124
-2.42677e-10
0.00519124
3.7773e-10
0.00519124
1.51482e-10
0.00519124
5.54307e-10
0.00519124
-2.29095e-10
0.00519124
3.00129e-10
0.00519124
-2.73928e-10
0.00519124
-3.118e-11
0.00519124
-3.04932e-10
0.00519124
7.83675e-11
0.00519124
-3.39515e-10
0.00519124
5.08254e-10
0.00519124
4.65448e-10
0.00519124
1.35341e-09
0.00519124
1.23939e-09
0.00519124
1.86726e-09
0.00519124
1.97055e-09
0.00519124
2.56274e-09
0.00519124
2.14714e-09
0.00519124
2.49655e-09
0.00519124
2.26319e-09
0.00519124
2.81218e-09
0.00519124
3.23989e-09
0.00519124
4.65069e-09
0.00519124
6.04423e-09
0.00519123
9.49445e-09
0.00519123
1.37349e-08
0.00519123
2.04299e-08
0.00519123
2.93438e-08
0.00519123
4.2284e-08
0.00519122
5.96367e-08
0.00519121
8.47456e-08
0.0051912
1.18469e-07
0.00519119
1.65518e-07
0.00519117
2.27507e-07
0.00519113
3.18415e-07
0.00519108
4.31014e-07
0.00519097
6.60104e-07
0.00519077
1.06176e-06
0.00519025
3.1331e-06
0.00518912
9.38227e-06
0.00518512
3.42199e-05
6.96212e-05
0.00518542
0.00146973
0.00520062
0.000630557
0.00519596
0.000150375
0.00519676
8.37595e-06
0.0051968
-9.80495e-06
0.00519698
5.42824e-06
0.00519667
8.92685e-06
0.00519635
1.11011e-05
0.005196
9.63889e-06
0.00519569
8.53684e-06
0.00519541
7.14328e-06
0.00519516
6.08761e-06
0.00519494
5.14735e-06
0.00519475
4.38144e-06
0.00519458
3.71931e-06
0.00519443
3.15736e-06
0.0051943
2.67445e-06
0.00519419
2.25121e-06
0.00519409
1.88594e-06
0.005194
1.56653e-06
0.00519393
1.28865e-06
0.00519387
1.0518e-06
0.00519382
8.50753e-07
0.00519378
6.81385e-07
0.00519374
5.40302e-07
0.00519371
4.25921e-07
0.00519369
3.3312e-07
0.00519367
2.57013e-07
0.00519366
1.98357e-07
0.00519365
1.51955e-07
0.00519364
1.15665e-07
0.00519363
8.65072e-08
0.00519363
6.49127e-08
0.00519363
4.73559e-08
0.00519362
3.55607e-08
0.00519362
2.57963e-08
0.00519362
1.94232e-08
0.00519362
1.39402e-08
0.00519362
9.56017e-09
0.00519362
5.67218e-09
0.00519362
4.47887e-09
0.00519362
3.52764e-09
0.00519362
3.74494e-09
0.00519361
3.07873e-09
0.00519361
3.38451e-09
0.00519361
2.19276e-09
0.00519361
2.34345e-09
0.00519361
1.47147e-09
0.00519361
1.71644e-09
0.00519361
1.32731e-09
0.00519361
1.15047e-09
0.00519361
3.29653e-11
0.00519361
1.50296e-10
0.00519361
-6.13941e-10
0.00519361
-5.12402e-11
0.00519361
-3.14718e-10
0.00519361
3.29463e-10
0.00519361
-2.07887e-10
0.00519361
3.61894e-10
0.00519361
1.58635e-10
0.00519361
6.02222e-10
0.00519361
-2.29365e-10
0.00519361
2.14901e-10
0.00519361
-3.39159e-10
0.00519361
-7.59091e-11
0.00519361
-3.51786e-10
0.00519361
1.69516e-10
0.00519361
-2.40141e-10
0.00519361
5.42566e-10
0.00519361
6.12472e-10
0.00519361
1.63864e-09
0.00519361
1.53145e-09
0.00519361
2.09954e-09
0.00519361
2.1253e-09
0.00519361
2.77282e-09
0.00519361
2.40786e-09
0.00519361
2.76771e-09
0.00519361
2.53655e-09
0.00519361
3.08377e-09
0.00519361
3.52099e-09
0.00519361
5.04046e-09
0.00519361
6.46386e-09
0.00519361
9.98558e-09
0.00519361
1.45334e-08
0.00519361
2.16502e-08
0.00519361
3.09909e-08
0.00519361
4.46394e-08
0.0051936
6.30182e-08
0.0051936
8.94462e-08
0.00519359
1.25093e-07
0.00519358
1.75234e-07
0.00519357
2.42372e-07
0.00519354
3.44077e-07
0.0051935
4.76465e-07
0.0051934
7.55829e-07
0.00519322
1.23862e-06
0.00519279
3.56667e-06
0.00519193
1.02366e-05
0.00518907
3.708e-05
7.50898e-05
0.00516896
0.00130077
0.00519493
0.000604582
0.00519441
0.000150896
0.00519531
7.47441e-06
0.00519523
-9.71852e-06
0.00519555
5.10434e-06
0.00519549
8.98397e-06
0.00519546
1.11345e-05
0.00519537
9.7279e-06
0.00519529
8.62003e-06
0.0051952
7.23131e-06
0.00519512
6.17034e-06
0.00519504
5.22766e-06
0.00519496
4.45653e-06
0.00519489
3.78869e-06
0.00519483
3.221e-06
0.00519477
2.73328e-06
0.00519472
2.30503e-06
0.00519467
1.93406e-06
0.00519463
1.6095e-06
0.00519459
1.32645e-06
0.00519456
1.08433e-06
0.00519453
8.78823e-07
0.0051945
7.05219e-07
0.00519449
5.59878e-07
0.00519447
4.41896e-07
0.00519446
3.46355e-07
0.00519445
2.68119e-07
0.00519444
2.07287e-07
0.00519443
1.58872e-07
0.00519442
1.21069e-07
0.00519442
9.06532e-08
0.00519442
6.81295e-08
0.00519441
4.98923e-08
0.00519441
3.73554e-08
0.00519441
2.70626e-08
0.00519441
2.02949e-08
0.00519441
1.46193e-08
0.00519441
1.01435e-08
0.00519441
6.23841e-09
0.00519441
4.89953e-09
0.00519441
4.02781e-09
0.00519441
4.27456e-09
0.00519441
3.30194e-09
0.00519441
3.43212e-09
0.00519441
2.36714e-09
0.00519441
2.51337e-09
0.00519441
1.68149e-09
0.00519441
1.78509e-09
0.00519441
1.29801e-09
0.00519441
1.0949e-09
0.00519441
2.95141e-11
0.00519441
1.66149e-10
0.00519441
-5.50798e-10
0.00519441
-9.93177e-11
0.00519441
-3.72345e-10
0.00519441
3.42083e-10
0.00519441
-1.54934e-10
0.00519441
3.09518e-10
0.00519441
1.06421e-10
0.00519441
5.89105e-10
0.00519441
-2.08182e-10
0.00519441
1.44616e-10
0.00519441
-3.55867e-10
0.00519441
-1.04814e-10
0.00519441
-3.95404e-10
0.00519441
2.36671e-10
0.00519441
-7.89836e-11
0.0051944
6.03242e-10
0.0051944
7.35192e-10
0.0051944
1.86844e-09
0.0051944
1.8262e-09
0.0051944
2.32461e-09
0.0051944
2.28607e-09
0.0051944
2.95962e-09
0.0051944
2.66709e-09
0.0051944
3.00751e-09
0.0051944
2.77534e-09
0.0051944
3.26627e-09
0.0051944
3.67135e-09
0.0051944
5.22504e-09
0.0051944
6.69978e-09
0.0051944
1.01995e-08
0.0051944
1.49298e-08
0.0051944
2.2249e-08
0.0051944
3.18062e-08
0.0051944
4.57651e-08
0.0051944
6.46467e-08
0.0051944
9.17004e-08
0.00519439
1.28352e-07
0.00519439
1.80327e-07
0.00519438
2.50962e-07
0.00519436
3.61047e-07
0.00519433
5.10057e-07
0.00519425
8.32068e-07
0.00519411
1.38118e-06
0.00519378
3.89418e-06
0.00519323
1.07935e-05
0.00519153
3.87811e-05
7.80846e-05
0.00515491
0.00114586
0.00518951
0.000569982
0.00519262
0.000147781
0.00519355
6.5503e-06
0.00519333
-9.50294e-06
0.00519376
4.67986e-06
0.00519393
8.81519e-06
0.00519415
1.09046e-05
0.0051943
9.58e-06
0.00519443
8.49451e-06
0.00519452
7.14247e-06
0.00519459
6.10193e-06
0.00519463
5.17955e-06
0.00519467
4.42177e-06
0.00519469
3.7641e-06
0.00519471
3.20426e-06
0.00519472
2.72344e-06
0.00519472
2.3007e-06
0.00519472
1.93321e-06
0.00519472
1.61138e-06
0.00519472
1.33033e-06
0.00519471
1.08908e-06
0.00519471
8.84136e-07
0.0051947
7.10699e-07
0.0051947
5.64856e-07
0.00519469
4.4628e-07
0.00519469
3.50538e-07
0.00519469
2.72186e-07
0.00519468
2.1079e-07
0.00519468
1.61618e-07
0.00519468
1.2322e-07
0.00519468
9.23897e-08
0.00519468
6.95229e-08
0.00519467
5.10761e-08
0.00519467
3.82136e-08
0.00519467
2.76317e-08
0.00519467
2.05872e-08
0.00519467
1.4857e-08
0.00519467
1.04052e-08
0.00519467
6.62317e-09
0.00519467
5.20251e-09
0.00519467
4.3225e-09
0.00519467
4.60886e-09
0.00519467
3.44122e-09
0.00519467
3.41903e-09
0.00519467
2.52498e-09
0.00519467
2.66397e-09
0.00519467
1.83461e-09
0.00519467
1.81296e-09
0.00519467
1.23586e-09
0.00519467
1.00937e-09
0.00519467
1.2309e-11
0.00519467
1.5836e-10
0.00519467
-5.15185e-10
0.00519467
-1.56776e-10
0.00519467
-4.61361e-10
0.00519467
3.02274e-10
0.00519467
-1.15947e-10
0.00519467
2.23022e-10
0.00519467
-8.87685e-12
0.00519467
5.22909e-10
0.00519467
-1.92728e-10
0.00519467
1.04398e-10
0.00519467
-3.37111e-10
0.00519467
-9.92353e-11
0.00519467
-4.47835e-10
0.00519467
2.37341e-10
0.00519467
6.7332e-11
0.00519467
6.75112e-10
0.00519467
8.22701e-10
0.00519467
2.05631e-09
0.00519467
2.13121e-09
0.00519467
2.57902e-09
0.00519467
2.47224e-09
0.00519467
3.14384e-09
0.00519467
2.90894e-09
0.00519467
3.20839e-09
0.00519467
2.94639e-09
0.00519467
3.35172e-09
0.00519467
3.67897e-09
0.00519467
5.19049e-09
0.00519467
6.71868e-09
0.00519467
1.01581e-08
0.00519467
1.49347e-08
0.00519467
2.23039e-08
0.00519467
3.18137e-08
0.00519467
4.56925e-08
0.00519467
6.4569e-08
0.00519467
9.15835e-08
0.00519467
1.28349e-07
0.00519467
1.80904e-07
0.00519467
2.53265e-07
0.00519466
3.68849e-07
0.00519464
5.30206e-07
0.00519459
8.84445e-07
0.00519449
1.48124e-06
0.00519428
4.10097e-06
0.00519403
1.10439e-05
0.00519347
3.93413e-05
7.87465e-05
0.00514307
0.00100279
0.00518462
0.000528426
0.00519092
0.00014148
0.00519182
5.65201e-06
0.00519147
-9.14888e-06
0.00519196
4.19213e-06
0.00519232
8.44722e-06
0.00519279
1.04411e-05
0.00519315
9.21831e-06
0.00519346
8.1799e-06
0.00519371
6.89222e-06
0.00519392
5.89471e-06
0.00519409
5.01272e-06
0.00519423
4.28495e-06
0.00519434
3.65174e-06
0.00519443
3.11213e-06
0.0051945
2.64888e-06
0.00519456
2.24127e-06
0.00519461
1.88581e-06
0.00519465
1.57405e-06
0.00519468
1.30162e-06
0.0051947
1.06701e-06
0.00519472
8.6734e-07
0.00519473
6.98251e-07
0.00519474
5.55602e-07
0.00519474
4.39355e-07
0.00519475
3.45792e-07
0.00519475
2.69184e-07
0.00519475
2.08811e-07
0.00519476
1.60189e-07
0.00519476
1.22163e-07
0.00519476
9.171e-08
0.00519476
6.90646e-08
0.00519476
5.07779e-08
0.00519476
3.80209e-08
0.00519476
2.74572e-08
0.00519476
2.03763e-08
0.00519476
1.47035e-08
0.00519476
1.04159e-08
0.00519476
6.85331e-09
0.00519476
5.37629e-09
0.00519476
4.37625e-09
0.00519476
4.72595e-09
0.00519476
3.49064e-09
0.00519476
3.36308e-09
0.00519476
2.60587e-09
0.00519476
2.74745e-09
0.00519476
1.8709e-09
0.00519476
1.80087e-09
0.00519476
1.19715e-09
0.00519476
9.90086e-10
0.00519476
3.84715e-11
0.00519476
1.89265e-10
0.00519476
-4.75373e-10
0.00519476
-1.81412e-10
0.00519476
-5.67785e-10
0.00519476
2.19621e-10
0.00519476
-9.00377e-11
0.00519476
1.7585e-10
0.00519476
-1.2604e-10
0.00519476
4.64895e-10
0.00519476
-1.83367e-10
0.00519476
9.42811e-11
0.00519476
-3.09645e-10
0.00519476
-4.69719e-11
0.00519476
-4.73879e-10
0.00519476
2.17401e-10
0.00519476
2.0156e-10
0.00519476
7.83109e-10
0.00519476
8.64386e-10
0.00519476
2.1612e-09
0.00519476
2.37656e-09
0.00519476
2.83635e-09
0.00519476
2.66283e-09
0.00519476
3.31907e-09
0.00519476
3.10481e-09
0.00519476
3.356e-09
0.00519476
3.02148e-09
0.00519476
3.34296e-09
0.00519476
3.55287e-09
0.00519476
4.9883e-09
0.00519476
6.55647e-09
0.00519476
9.88892e-09
0.00519476
1.45591e-08
0.00519476
2.1805e-08
0.00519476
3.10226e-08
0.00519476
4.4466e-08
0.00519476
6.2863e-08
0.00519477
8.92202e-08
0.00519477
1.25241e-07
0.00519477
1.77132e-07
0.00519478
2.49366e-07
0.00519478
3.67206e-07
0.00519477
5.35796e-07
0.00519475
9.09821e-07
0.0051947
1.53318e-06
0.00519462
4.17862e-06
0.00519467
1.0988e-05
0.00519521
3.8808e-05
7.72439e-05
0.00513315
0.000869646
0.00518033
0.000481244
0.00518941
0.000132397
0.00519026
4.8066e-06
0.00518976
-8.64758e-06
0.00519028
3.67213e-06
0.00519082
7.90604e-06
0.00519148
9.77231e-06
0.00519204
8.66577e-06
0.00519252
7.69572e-06
0.00519292
6.49618e-06
0.00519325
5.5614e-06
0.00519353
4.73737e-06
0.00519376
4.05446e-06
0.00519395
3.45852e-06
0.00519411
2.95025e-06
0.00519425
2.51424e-06
0.00519436
2.13039e-06
0.00519445
1.79483e-06
0.00519452
1.49991e-06
0.00519458
1.24208e-06
0.00519463
1.01945e-06
0.00519467
8.29499e-07
0.0051947
6.68672e-07
0.00519472
5.32768e-07
0.00519474
4.21632e-07
0.00519475
3.32409e-07
0.00519476
2.59272e-07
0.00519477
2.0145e-07
0.00519477
1.547e-07
0.00519478
1.1802e-07
0.00519478
8.86687e-08
0.00519478
6.67674e-08
0.00519478
4.90031e-08
0.00519479
3.67716e-08
0.00519479
2.65411e-08
0.00519479
1.96661e-08
0.00519479
1.41479e-08
0.00519479
1.01019e-08
0.00519479
6.83345e-09
0.00519479
5.39464e-09
0.00519479
4.22487e-09
0.00519479
4.65782e-09
0.00519479
3.49964e-09
0.00519479
3.33024e-09
0.00519479
2.65751e-09
0.00519479
2.81265e-09
0.00519479
1.84091e-09
0.00519479
1.7523e-09
0.00519479
1.15519e-09
0.00519479
9.83988e-10
0.00519479
3.64154e-11
0.00519479
1.90616e-10
0.00519479
-4.64977e-10
0.00519479
-1.69013e-10
0.00519479
-6.76903e-10
0.00519479
9.32921e-11
0.00519479
-1.0062e-10
0.00519479
1.5177e-10
0.00519479
-2.3063e-10
0.00519479
4.04967e-10
0.00519479
-1.87806e-10
0.00519479
9.75076e-11
0.00519479
-3.01756e-10
0.00519479
1.24979e-11
0.00519479
-5.08846e-10
0.00519479
1.34922e-10
0.00519479
2.64954e-10
0.00519479
9.21694e-10
0.00519479
9.20311e-10
0.00519479
2.24142e-09
0.00519479
2.5865e-09
0.00519479
3.08933e-09
0.00519479
2.84258e-09
0.00519479
3.46075e-09
0.00519479
3.22777e-09
0.00519479
3.42778e-09
0.00519479
2.99135e-09
0.00519479
3.24572e-09
0.00519479
3.32463e-09
0.00519479
4.63953e-09
0.00519479
6.20879e-09
0.00519479
9.39419e-09
0.00519479
1.3805e-08
0.00519479
2.0742e-08
0.00519479
2.94538e-08
0.00519479
4.21599e-08
0.0051948
5.96425e-08
0.0051948
8.47685e-08
0.00519481
1.19223e-07
0.00519482
1.69225e-07
0.00519483
2.39451e-07
0.00519484
3.56073e-07
0.00519485
5.26214e-07
0.00519485
9.06327e-07
0.00519485
1.53387e-06
0.0051949
4.12434e-06
0.00519526
1.06336e-05
0.00519682
3.72497e-05
7.37631e-05
0.00512488
0.000744769
0.00517661
0.000429513
0.0051881
0.000120905
0.00518888
4.02609e-06
0.00518823
-7.99432e-06
0.00518876
3.14416e-06
0.00518945
7.21648e-06
0.00519029
8.92514e-06
0.00519101
7.94492e-06
0.00519165
7.06133e-06
0.00519217
5.97009e-06
0.00519262
5.11515e-06
0.00519299
4.36425e-06
0.00519331
3.73932e-06
0.00519357
3.19195e-06
0.0051938
2.7249e-06
0.00519399
2.32476e-06
0.00519415
1.97235e-06
0.00519428
1.66376e-06
0.00519438
1.39183e-06
0.00519447
1.15395e-06
0.00519454
9.48149e-07
0.0051946
7.72062e-07
0.00519465
6.23082e-07
0.00519468
4.97198e-07
0.00519471
3.93803e-07
0.00519473
3.1086e-07
0.00519475
2.42796e-07
0.00519476
1.88957e-07
0.00519477
1.45355e-07
0.00519478
1.10945e-07
0.00519478
8.33647e-08
0.00519479
6.27003e-08
0.00519479
4.58363e-08
0.00519479
3.45047e-08
0.00519479
2.49423e-08
0.0051948
1.84654e-08
0.0051948
1.32146e-08
0.0051948
9.47683e-09
0.0051948
6.54548e-09
0.0051948
5.24137e-09
0.0051948
3.93342e-09
0.0051948
4.44381e-09
0.0051948
3.48975e-09
0.0051948
3.30841e-09
0.0051948
2.65711e-09
0.0051948
2.82536e-09
0.0051948
1.77192e-09
0.0051948
1.67816e-09
0.0051948
1.13902e-09
0.0051948
1.00772e-09
0.0051948
3.50835e-11
0.0051948
1.67335e-10
0.0051948
-4.65133e-10
0.0051948
-1.1411e-10
0.0051948
-7.42718e-10
0.0051948
-4.94621e-11
0.0051948
-1.11364e-10
0.0051948
1.73023e-10
0.0051948
-2.83958e-10
0.0051948
3.44938e-10
0.0051948
-2.11294e-10
0.0051948
8.52267e-11
0.0051948
-3.25708e-10
0.0051948
5.60599e-11
0.0051948
-5.16681e-10
0.0051948
3.06439e-11
0.0051948
2.79665e-10
0.0051948
1.07644e-09
0.0051948
1.00328e-09
0.0051948
2.27634e-09
0.0051948
2.73349e-09
0.0051948
3.2954e-09
0.0051948
2.98373e-09
0.0051948
3.53642e-09
0.0051948
3.26581e-09
0.0051948
3.41024e-09
0.0051948
2.87107e-09
0.0051948
3.06904e-09
0.0051948
3.03261e-09
0.0051948
4.18338e-09
0.0051948
5.68278e-09
0.0051948
8.66777e-09
0.0051948
1.26879e-08
0.0051948
1.91274e-08
0.0051948
2.71586e-08
0.00519481
3.88751e-08
0.00519481
5.50528e-08
0.00519482
7.8411e-08
0.00519483
1.10527e-07
0.00519484
1.57445e-07
0.00519485
2.2381e-07
0.00519488
3.35646e-07
0.0051949
5.01385e-07
0.00519493
8.73364e-07