/*--------------------------------*- C++ -*----------------------------------*\
  =========                 |
  \\      /  F ield         | OpenFOAM: The Open Source CFD Toolbox
   \\    /   O peration     | Website:  https://openfoam.org
    \\  /    A nd           | Version:  7
     \\/     M anipulation  |
\*---------------------------------------------------------------------------*/
FoamFile
{
    version     2.0;
    format      ascii;
    class       volVectorField;
    location    "1";
    object      U;
}
// * * * * * * * * * * * * * * * * * * * * * * * * * * * * * * * * * * * * * //

dimensions      [0 1 -1 0 0 0 0];

internalField   nonuniform List<vector> 
4000
(
(0.53757 0.0563933 0)
(0.552202 0.00359664 0)
(0.517076 -0.00176394 0)
(0.522898 -0.00200088 0)
(0.521079 -0.00213055 0)
(0.522008 -0.00203748 0)
(0.521396 -0.00204443 0)
(0.521239 -0.00203447 0)
(0.520888 -0.00204381 0)
(0.52067 -0.00204758 0)
(0.520454 -0.00205314 0)
(0.520289 -0.00205677 0)
(0.520144 -0.00206025 0)
(0.520026 -0.00206285 0)
(0.519925 -0.00206499 0)
(0.519841 -0.00206675 0)
(0.519771 -0.00206824 0)
(0.519713 -0.00206949 0)
(0.519665 -0.00207053 0)
(0.519626 -0.0020714 0)
(0.519594 -0.00207212 0)
(0.519569 -0.00207275 0)
(0.519549 -0.00207325 0)
(0.519533 -0.00207363 0)
(0.51952 -0.00207396 0)
(0.51951 -0.00207422 0)
(0.519503 -0.00207444 0)
(0.519497 -0.0020746 0)
(0.519493 -0.0020747 0)
(0.519489 -0.0020748 0)
(0.519487 -0.00207489 0)
(0.519485 -0.00207494 0)
(0.519484 -0.00207497 0)
(0.519483 -0.00207501 0)
(0.519482 -0.00207503 0)
(0.519482 -0.00207505 0)
(0.519481 -0.00207505 0)
(0.519481 -0.00207508 0)
(0.519481 -0.00207509 0)
(0.519481 -0.00207508 0)
(0.51948 -0.00207507 0)
(0.51948 -0.0020751 0)
(0.51948 -0.00207511 0)
(0.51948 -0.0020751 0)
(0.51948 -0.00207509 0)
(0.51948 -0.00207508 0)
(0.51948 -0.00207509 0)
(0.51948 -0.0020751 0)
(0.51948 -0.00207509 0)
(0.51948 -0.00207509 0)
(0.51948 -0.00207509 0)
(0.51948 -0.0020751 0)
(0.51948 -0.00207509 0)
(0.51948 -0.00207509 0)
(0.51948 -0.00207509 0)
(0.51948 -0.0020751 0)
(0.51948 -0.0020751 0)
(0.51948 -0.0020751 0)
(0.51948 -0.00207509 0)
(0.51948 -0.00207509 0)
(0.51948 -0.00207509 0)
(0.51948 -0.0020751 0)
(0.51948 -0.00207509 0)
(0.51948 -0.00207509 0)
(0.51948 -0.00207509 0)
(0.51948 -0.00207509 0)
(0.51948 -0.00207509 0)
(0.51948 -0.00207509 0)
(0.51948 -0.00207509 0)
(0.51948 -0.00207509 0)
(0.51948 -0.00207509 0)
(0.51948 -0.0020751 0)
(0.51948 -0.00207509 0)
(0.51948 -0.00207509 0)
(0.51948 -0.00207509 0)
(0.51948 -0.00207509 0)
(0.51948 -0.00207509 0)
(0.51948 -0.00207509 0)
(0.51948 -0.00207508 0)
(0.51948 -0.00207509 0)
(0.51948 -0.00207509 0)
(0.51948 -0.00207508 0)
(0.51948 -0.00207506 0)
(0.519479 -0.00207506 0)
(0.519479 -0.00207504 0)
(0.519478 -0.00207502 0)
(0.519478 -0.00207497 0)
(0.519476 -0.00207492 0)
(0.519475 -0.00207485 0)
(0.519472 -0.00207476 0)
(0.519469 -0.00207463 0)
(0.519464 -0.00207448 0)
(0.519458 -0.00207434 0)
(0.51945 -0.00207433 0)
(0.519443 -0.00207462 0)
(0.519435 -0.00207526 0)
(0.519442 -0.00207437 0)
(0.51936 -0.00206118 0)
(0.519227 -0.00202117 0)
(0.518637 -0.00215158 0)
(0.864939 0.128443 0)
(0.911602 0.016004 0)
(0.861978 0.000988119 0)
(0.871366 -6.97536e-05 0)
(0.867973 -0.000504259 0)
(0.869558 -0.000189035 0)
(0.868593 -0.000199833 0)
(0.868416 -0.000161618 0)
(0.867893 -0.000190423 0)
(0.867583 -0.00020248 0)
(0.867264 -0.000221656 0)
(0.867022 -0.000234499 0)
(0.866807 -0.000246742 0)
(0.866632 -0.000256327 0)
(0.866481 -0.000264332 0)
(0.866356 -0.000270871 0)
(0.866251 -0.000276452 0)
(0.866163 -0.000281203 0)
(0.86609 -0.000285218 0)
(0.86603 -0.000288669 0)
(0.865981 -0.000291553 0)
(0.865941 -0.000294018 0)
(0.865909 -0.000296068 0)
(0.865884 -0.000297676 0)
(0.865864 -0.000299039 0)
(0.865849 -0.000300148 0)
(0.865837 -0.000301006 0)
(0.865828 -0.000301699 0)
(0.865821 -0.000302172 0)
(0.865815 -0.000302595 0)
(0.865812 -0.000302947 0)
(0.865809 -0.000303167 0)
(0.865806 -0.00030332 0)
(0.865805 -0.000303481 0)
(0.865804 -0.000303565 0)
(0.865803 -0.00030364 0)
(0.865802 -0.000303688 0)
(0.865802 -0.000303761 0)
(0.865801 -0.000303798 0)
(0.865801 -0.000303788 0)
(0.865801 -0.000303768 0)
(0.865801 -0.000303847 0)
(0.865801 -0.000303867 0)
(0.8658 -0.00030386 0)
(0.8658 -0.00030383 0)
(0.8658 -0.000303812 0)
(0.8658 -0.000303819 0)
(0.8658 -0.000303863 0)
(0.8658 -0.000303833 0)
(0.8658 -0.00030384 0)
(0.8658 -0.000303835 0)
(0.8658 -0.000303842 0)
(0.8658 -0.000303839 0)
(0.8658 -0.000303844 0)
(0.8658 -0.00030383 0)
(0.8658 -0.00030386 0)
(0.8658 -0.000303853 0)
(0.8658 -0.000303848 0)
(0.8658 -0.000303832 0)
(0.8658 -0.000303848 0)
(0.8658 -0.000303839 0)
(0.8658 -0.000303853 0)
(0.8658 -0.000303836 0)
(0.8658 -0.000303837 0)
(0.8658 -0.000303825 0)
(0.8658 -0.000303844 0)
(0.8658 -0.000303843 0)
(0.8658 -0.000303847 0)
(0.8658 -0.000303831 0)
(0.8658 -0.000303844 0)
(0.8658 -0.000303837 0)
(0.8658 -0.000303851 0)
(0.8658 -0.000303837 0)
(0.8658 -0.000303825 0)
(0.8658 -0.000303815 0)
(0.8658 -0.000303832 0)
(0.8658 -0.000303818 0)
(0.8658 -0.00030382 0)
(0.8658 -0.000303808 0)
(0.8658 -0.000303817 0)
(0.8658 -0.000303814 0)
(0.865799 -0.000303794 0)
(0.865799 -0.000303746 0)
(0.865799 -0.000303716 0)
(0.865798 -0.000303645 0)
(0.865797 -0.00030356 0)
(0.865796 -0.000303421 0)
(0.865794 -0.000303235 0)
(0.865792 -0.000302975 0)
(0.865788 -0.000302636 0)
(0.865783 -0.000302162 0)
(0.865775 -0.000301602 0)
(0.865766 -0.000300977 0)
(0.865753 -0.000300637 0)
(0.865741 -0.000300852 0)
(0.865723 -0.000301411 0)
(0.865717 -0.000293302 0)
(0.865544 -0.000239535 0)
(0.865251 -7.33952e-05 0)
(0.863184 -0.000219121 0)
(0.960343 0.135884 0)
(1.02537 0.0244326 0)
(0.976343 0.00334622 0)
(0.987432 0.000826922 0)
(0.983118 0.000104626 0)
(0.985019 0.000610423 0)
(0.98394 0.000617335 0)
(0.983839 0.000682199 0)
(0.983307 0.000635709 0)
(0.983017 0.000613158 0)
(0.9827 0.000579478 0)
(0.982465 0.000556223 0)
(0.982253 0.000534471 0)
(0.98208 0.000517171 0)
(0.981932 0.000502479 0)
(0.981807 0.000490406 0)
(0.981702 0.000480103 0)
(0.981613 0.000471264 0)
(0.98154 0.000463719 0)
(0.981479 0.000457181 0)
(0.981429 0.000451729 0)
(0.981388 0.000447107 0)
(0.981355 0.000443169 0)
(0.981329 0.000440011 0)
(0.981308 0.000437417 0)
(0.981292 0.000435298 0)
(0.98128 0.000433627 0)
(0.98127 0.000432258 0)
(0.981262 0.000431267 0)
(0.981257 0.00043045 0)
(0.981253 0.000429793 0)
(0.981249 0.000429329 0)
(0.981247 0.000429006 0)
(0.981245 0.000428702 0)
(0.981244 0.000428524 0)
(0.981243 0.000428354 0)
(0.981242 0.000428254 0)
(0.981242 0.000428153 0)
(0.981241 0.000428088 0)
(0.981241 0.00042805 0)
(0.981241 0.000428055 0)
(0.981241 0.000427968 0)
(0.981241 0.000427962 0)
(0.98124 0.000427968 0)
(0.98124 0.000427994 0)
(0.98124 0.000427999 0)
(0.98124 0.000428008 0)
(0.98124 0.000427948 0)
(0.98124 0.000427977 0)
(0.98124 0.000427969 0)
(0.98124 0.000427981 0)
(0.98124 0.000427965 0)
(0.98124 0.000427963 0)
(0.98124 0.000427938 0)
(0.98124 0.000427968 0)
(0.98124 0.000427941 0)
(0.98124 0.000427954 0)
(0.98124 0.000427948 0)
(0.98124 0.000427967 0)
(0.98124 0.000427943 0)
(0.98124 0.000427963 0)
(0.98124 0.000427945 0)
(0.98124 0.000427967 0)
(0.98124 0.000427954 0)
(0.98124 0.000427971 0)
(0.98124 0.00042795 0)
(0.98124 0.000427958 0)
(0.98124 0.000427948 0)
(0.98124 0.000427973 0)
(0.98124 0.000427952 0)
(0.98124 0.000427971 0)
(0.98124 0.000427955 0)
(0.98124 0.000427975 0)
(0.98124 0.000427986 0)
(0.98124 0.000428007 0)
(0.98124 0.000427986 0)
(0.98124 0.000428002 0)
(0.98124 0.000427994 0)
(0.98124 0.000428012 0)
(0.98124 0.000428008 0)
(0.98124 0.000428025 0)
(0.981239 0.000428053 0)
(0.981239 0.000428136 0)
(0.981239 0.000428208 0)
(0.981238 0.000428349 0)
(0.981237 0.000428517 0)
(0.981236 0.000428772 0)
(0.981234 0.000429126 0)
(0.981231 0.000429631 0)
(0.981227 0.000430291 0)
(0.981222 0.000431203 0)
(0.981215 0.000432307 0)
(0.981205 0.000433633 0)
(0.981192 0.000434618 0)
(0.981177 0.000435273 0)
(0.981151 0.000436415 0)
(0.981131 0.000458839 0)
(0.980907 0.000569115 0)
(0.98054 0.000943204 0)
(0.977592 0.00117813 0)
(0.984986 0.123265 0)
(1.05953 0.0286589 0)
(1.01378 0.00469516 0)
(1.02594 0.00070336 0)
(1.02102 -0.000183327 0)
(1.02314 0.000445607 0)
(1.02202 0.00048558 0)
(1.02202 0.000569492 0)
(1.02153 0.000510239 0)
(1.02129 0.000477264 0)
(1.02101 0.000430727 0)
(1.02081 0.000397475 0)
(1.02063 0.0003667 0)
(1.02048 0.000341813 0)
(1.02034 0.000320352 0)
(1.02023 0.000303308 0)
(1.02014 0.000288751 0)
(1.02006 0.000276209 0)
(1.02 0.000265492 0)
(1.01994 0.000256141 0)
(1.0199 0.000248256 0)
(1.01986 0.000241607 0)
(1.01983 0.000235911 0)
(1.0198 0.000231248 0)
(1.01979 0.000227425 0)
(1.01977 0.000224329 0)
(1.01976 0.000221873 0)
(1.01975 0.000219859 0)
(1.01974 0.000218364 0)
(1.01974 0.000217168 0)
(1.01973 0.000216218 0)
(1.01973 0.000215511 0)
(1.01973 0.000215004 0)
(1.01973 0.000214565 0)
(1.01972 0.000214298 0)
(1.01972 0.000214045 0)
(1.01972 0.000213887 0)
(1.01972 0.000213747 0)
(1.01972 0.000213651 0)
(1.01972 0.000213574 0)
(1.01972 0.00021356 0)
(1.01972 0.000213471 0)
(1.01972 0.000213469 0)
(1.01972 0.000213481 0)
(1.01972 0.000213507 0)
(1.01972 0.00021349 0)
(1.01972 0.000213505 0)
(1.01972 0.000213445 0)
(1.01972 0.00021347 0)
(1.01972 0.000213462 0)
(1.01972 0.000213472 0)
(1.01972 0.000213448 0)
(1.01972 0.000213446 0)
(1.01972 0.000213408 0)
(1.01972 0.000213443 0)
(1.01972 0.000213423 0)
(1.01972 0.00021344 0)
(1.01972 0.000213428 0)
(1.01972 0.00021345 0)
(1.01972 0.000213425 0)
(1.01972 0.000213448 0)
(1.01972 0.000213428 0)
(1.01972 0.000213456 0)
(1.01972 0.000213434 0)
(1.01972 0.000213449 0)
(1.01972 0.00021343 0)
(1.01972 0.000213439 0)
(1.01972 0.000213427 0)
(1.01972 0.000213459 0)
(1.01972 0.000213437 0)
(1.01972 0.000213462 0)
(1.01972 0.000213451 0)
(1.01972 0.000213477 0)
(1.01972 0.000213487 0)
(1.01972 0.000213511 0)
(1.01972 0.000213491 0)
(1.01972 0.000213506 0)
(1.01972 0.000213494 0)
(1.01972 0.000213515 0)
(1.01972 0.000213518 0)
(1.01972 0.00021355 0)
(1.01972 0.000213591 0)
(1.01972 0.000213705 0)
(1.01972 0.000213819 0)
(1.01972 0.000214021 0)
(1.01972 0.000214275 0)
(1.01972 0.000214642 0)
(1.01971 0.000215151 0)
(1.01971 0.000215889 0)
(1.01971 0.000216861 0)
(1.0197 0.000218198 0)
(1.0197 0.00021985 0)
(1.01969 0.00022194 0)
(1.01968 0.000223804 0)
(1.01966 0.000226196 0)
(1.01963 0.000230591 0)
(1.0196 0.000271593 0)
(1.01935 0.000444173 0)
(1.01899 0.00104981 0)
(1.01589 0.00176944 0)
(0.988583 0.109936 0)
(1.06798 0.0309654 0)
(1.02562 0.00570076 0)
(1.03853 0.000550039 0)
(1.0332 -0.000405348 0)
(1.03548 0.000300397 0)
(1.03436 0.000374913 0)
(1.03446 0.000470812 0)
(1.03403 0.000403182 0)
(1.03386 0.000361686 0)
(1.03362 0.000305432 0)
(1.03346 0.000264401 0)
(1.03331 0.000226882 0)
(1.03319 0.000196415 0)
(1.03308 0.000170121 0)
(1.03299 0.000148994 0)
(1.03291 0.000130887 0)
(1.03284 0.0001152 0)
(1.03279 0.000101759 0)
(1.03274 8.99742e-05 0)
(1.0327 7.98931e-05 0)
(1.03267 7.13471e-05 0)
(1.03264 6.39697e-05 0)
(1.03262 5.7776e-05 0)
(1.0326 5.25987e-05 0)
(1.03259 4.84982e-05 0)
(1.03258 4.53377e-05 0)
(1.03257 4.27498e-05 0)
(1.03257 4.08114e-05 0)
(1.03256 3.9276e-05 0)
(1.03256 3.80599e-05 0)
(1.03256 3.7132e-05 0)
(1.03255 3.6453e-05 0)
(1.03255 3.58862e-05 0)
(1.03255 3.55296e-05 0)
(1.03255 3.52043e-05 0)
(1.03255 3.49986e-05 0)
(1.03255 3.48215e-05 0)
(1.03255 3.46879e-05 0)
(1.03255 3.45773e-05 0)
(1.03255 3.45452e-05 0)
(1.03255 3.44614e-05 0)
(1.03255 3.44625e-05 0)
(1.03255 3.44768e-05 0)
(1.03255 3.45033e-05 0)
(1.03255 3.44661e-05 0)
(1.03255 3.44795e-05 0)
(1.03255 3.44245e-05 0)
(1.03255 3.44471e-05 0)
(1.03255 3.44408e-05 0)
(1.03255 3.44443e-05 0)
(1.03255 3.4412e-05 0)
(1.03255 3.44101e-05 0)
(1.03255 3.4368e-05 0)
(1.03255 3.44032e-05 0)
(1.03255 3.43889e-05 0)
(1.03255 3.44074e-05 0)
(1.03255 3.43912e-05 0)
(1.03255 3.44172e-05 0)
(1.03255 3.43961e-05 0)
(1.03255 3.44164e-05 0)
(1.03255 3.43931e-05 0)
(1.03255 3.44239e-05 0)
(1.03255 3.43982e-05 0)
(1.03255 3.44088e-05 0)
(1.03255 3.43923e-05 0)
(1.03255 3.44009e-05 0)
(1.03255 3.43883e-05 0)
(1.03255 3.44265e-05 0)
(1.03255 3.44073e-05 0)
(1.03255 3.44367e-05 0)
(1.03255 3.44307e-05 0)
(1.03255 3.44605e-05 0)
(1.03255 3.44711e-05 0)
(1.03255 3.44952e-05 0)
(1.03255 3.44744e-05 0)
(1.03255 3.44896e-05 0)
(1.03255 3.44774e-05 0)
(1.03255 3.44993e-05 0)
(1.03255 3.451e-05 0)
(1.03255 3.45552e-05 0)
(1.03255 3.461e-05 0)
(1.03255 3.47479e-05 0)
(1.03255 3.48971e-05 0)
(1.03255 3.51492e-05 0)
(1.03254 3.54767e-05 0)
(1.03254 3.59464e-05 0)
(1.03254 3.65889e-05 0)
(1.03254 3.75219e-05 0)
(1.03254 3.87607e-05 0)
(1.03253 4.04647e-05 0)
(1.03253 4.26115e-05 0)
(1.03252 4.54578e-05 0)
(1.03251 4.83548e-05 0)
(1.03249 5.33578e-05 0)
(1.03246 6.24267e-05 0)
(1.03242 0.000123661 0)
(1.03218 0.000349306 0)
(1.03185 0.0011684 0)
(1.02902 0.00229722 0)
(0.986399 0.0982521 0)
(1.06826 0.0321902 0)
(1.02899 0.00652556 0)
(1.04247 0.00050421 0)
(1.03684 -0.000470729 0)
(1.03926 0.000279557 0)
(1.03813 0.000386101 0)
(1.03834 0.00048848 0)
(1.03796 0.000416524 0)
(1.03785 0.000369188 0)
(1.03767 0.00030699 0)
(1.03755 0.000261219 0)
(1.03743 0.000220051 0)
(1.03733 0.000186859 0)
(1.03725 0.000158233 0)
(1.03718 0.000134045 0)
(1.03712 0.00011324 0)
(1.03706 9.51367e-05 0)
(1.03702 7.9603e-05 0)
(1.03698 6.59824e-05 0)
(1.03695 5.42375e-05 0)
(1.03692 4.42631e-05 0)
(1.0369 3.56851e-05 0)
(1.03689 2.84418e-05 0)
(1.03687 2.23802e-05 0)
(1.03686 1.75719e-05 0)
(1.03685 1.38178e-05 0)
(1.03685 1.07393e-05 0)
(1.03684 8.41199e-06 0)
(1.03684 6.57421e-06 0)
(1.03683 5.11742e-06 0)
(1.03683 3.97729e-06 0)
(1.03683 3.12436e-06 0)
(1.03683 2.41429e-06 0)
(1.03683 1.9447e-06 0)
(1.03682 1.55409e-06 0)
(1.03682 1.30922e-06 0)
(1.03682 1.09735e-06 0)
(1.03682 9.28785e-07 0)
(1.03682 7.86896e-07 0)
(1.03682 7.43207e-07 0)
(1.03682 6.6863e-07 0)
(1.03682 6.71771e-07 0)
(1.03682 6.79762e-07 0)
(1.03682 7.06712e-07 0)
(1.03682 6.55535e-07 0)
(1.03682 6.64349e-07 0)
(1.03682 6.14279e-07 0)
(1.03682 6.3516e-07 0)
(1.03682 6.28434e-07 0)
(1.03682 6.26293e-07 0)
(1.03682 5.83988e-07 0)
(1.03682 5.83694e-07 0)
(1.03682 5.4169e-07 0)
(1.03682 5.76008e-07 0)
(1.03682 5.64521e-07 0)
(1.03682 5.8532e-07 0)
(1.03682 5.65093e-07 0)
(1.03682 5.93788e-07 0)
(1.03682 5.778e-07 0)
(1.03682 5.96734e-07 0)
(1.03682 5.67227e-07 0)
(1.03682 5.97801e-07 0)
(1.03682 5.70441e-07 0)
(1.03682 5.79804e-07 0)
(1.03682 5.65336e-07 0)
(1.03682 5.75796e-07 0)
(1.03682 5.60278e-07 0)
(1.03682 6.01976e-07 0)
(1.03682 5.89408e-07 0)
(1.03682 6.23354e-07 0)
(1.03682 6.19071e-07 0)
(1.03682 6.51206e-07 0)
(1.03682 6.61127e-07 0)
(1.03682 6.86172e-07 0)
(1.03682 6.64831e-07 0)
(1.03682 6.80427e-07 0)
(1.03682 6.68831e-07 0)
(1.03682 6.92909e-07 0)
(1.03682 7.09661e-07 0)
(1.03682 7.66184e-07 0)
(1.03682 8.30309e-07 0)
(1.03682 9.86678e-07 0)
(1.03682 1.16593e-06 0)
(1.03682 1.45731e-06 0)
(1.03682 1.84505e-06 0)
(1.03682 2.43282e-06 0)
(1.03682 3.21701e-06 0)
(1.03682 4.33321e-06 0)
(1.03681 5.80886e-06 0)
(1.03681 7.83472e-06 0)
(1.03681 1.04265e-05 0)
(1.0368 1.40085e-05 0)
(1.03679 1.80157e-05 0)
(1.03677 2.56987e-05 0)
(1.03674 3.94547e-05 0)
(1.0367 0.000119415 0)
(1.03647 0.000383993 0)
(1.03621 0.00139879 0)
(1.03382 0.00284706 0)
(0.983097 0.0876428 0)
(1.06613 0.0325015 0)
(1.02961 0.00711638 0)
(1.0435 0.00047999 0)
(1.03766 -0.000484375 0)
(1.04019 0.000284431 0)
(1.03907 0.000421423 0)
(1.03937 0.000528166 0)
(1.03905 0.000454079 0)
(1.039 0.000402313 0)
(1.03886 0.000335619 0)
(1.03878 0.00028592 0)
(1.0387 0.000241489 0)
(1.03863 0.000205562 0)
(1.03857 0.000174564 0)
(1.03852 0.000148204 0)
(1.03847 0.000125535 0)
(1.03843 0.000105754 0)
(1.0384 8.87639e-05 0)
(1.03837 7.39048e-05 0)
(1.03835 6.10569e-05 0)
(1.03833 5.01632e-05 0)
(1.03831 4.08903e-05 0)
(1.0383 3.31134e-05 0)
(1.03829 2.66768e-05 0)
(1.03828 2.14756e-05 0)
(1.03827 1.72572e-05 0)
(1.03827 1.3787e-05 0)
(1.03826 1.11371e-05 0)
(1.03826 9.04027e-06 0)
(1.03826 7.37703e-06 0)
(1.03825 6.04345e-06 0)
(1.03825 5.02919e-06 0)
(1.03825 4.18112e-06 0)
(1.03825 3.6173e-06 0)
(1.03825 3.17324e-06 0)
(1.03825 2.8954e-06 0)
(1.03825 2.65414e-06 0)
(1.03825 2.45837e-06 0)
(1.03825 2.2895e-06 0)
(1.03825 2.23867e-06 0)
(1.03825 2.17537e-06 0)
(1.03825 2.1815e-06 0)
(1.03825 2.17499e-06 0)
(1.03825 2.19958e-06 0)
(1.03825 2.14085e-06 0)
(1.03825 2.14787e-06 0)
(1.03825 2.10061e-06 0)
(1.03825 2.11935e-06 0)
(1.03825 2.10887e-06 0)
(1.03825 2.10334e-06 0)
(1.03825 2.05269e-06 0)
(1.03825 2.05485e-06 0)
(1.03825 2.01389e-06 0)
(1.03825 2.04671e-06 0)
(1.03825 2.03523e-06 0)
(1.03825 2.06017e-06 0)
(1.03825 2.03574e-06 0)
(1.03825 2.06613e-06 0)
(1.03825 2.0538e-06 0)
(1.03825 2.07334e-06 0)
(1.03825 2.03719e-06 0)
(1.03825 2.06535e-06 0)
(1.03825 2.03702e-06 0)
(1.03825 2.04806e-06 0)
(1.03825 2.03452e-06 0)
(1.03825 2.05007e-06 0)
(1.03825 2.03064e-06 0)
(1.03825 2.07327e-06 0)
(1.03825 2.06793e-06 0)
(1.03825 2.1085e-06 0)
(1.03825 2.10337e-06 0)
(1.03825 2.1356e-06 0)
(1.03825 2.14303e-06 0)
(1.03825 2.17101e-06 0)
(1.03825 2.14978e-06 0)
(1.03825 2.16651e-06 0)
(1.03825 2.15486e-06 0)
(1.03825 2.1814e-06 0)
(1.03825 2.20184e-06 0)
(1.03825 2.26815e-06 0)
(1.03825 2.33682e-06 0)
(1.03825 2.50535e-06 0)
(1.03825 2.70838e-06 0)
(1.03825 3.0311e-06 0)
(1.03825 3.46552e-06 0)
(1.03825 4.13321e-06 0)
(1.03824 5.05511e-06 0)
(1.03824 6.33555e-06 0)
(1.03824 8.01277e-06 0)
(1.03824 1.03113e-05 0)
(1.03824 1.32911e-05 0)
(1.03823 1.75625e-05 0)
(1.03822 2.26831e-05 0)
(1.03821 3.28433e-05 0)
(1.03818 5.0804e-05 0)
(1.03814 0.000147163 0)
(1.03794 0.000446245 0)
(1.03774 0.00162596 0)
(1.03587 0.00331318 0)
(0.980006 0.0779342 0)
(1.06351 0.0320469 0)
(1.02938 0.00745991 0)
(1.04358 0.000443744 0)
(1.03758 -0.000489312 0)
(1.04019 0.000279496 0)
(1.03908 0.000443491 0)
(1.03947 0.000552334 0)
(1.03919 0.0004783 0)
(1.03921 0.000423767 0)
(1.03911 0.00035445 0)
(1.03907 0.00030219 0)
(1.03902 0.000255592 0)
(1.03898 0.000217718 0)
(1.03894 0.000185003 0)
(1.0389 0.000157237 0)
(1.03888 0.000133372 0)
(1.03885 0.000112484 0)
(1.03883 9.44896e-05 0)
(1.03881 7.87588e-05 0)
(1.03879 6.5102e-05 0)
(1.03878 5.34869e-05 0)
(1.03877 4.36274e-05 0)
(1.03876 3.53406e-05 0)
(1.03875 2.8462e-05 0)
(1.03875 2.2878e-05 0)
(1.03874 1.83303e-05 0)
(1.03874 1.45915e-05 0)
(1.03873 1.17132e-05 0)
(1.03873 9.43163e-06 0)
(1.03873 7.63232e-06 0)
(1.03873 6.17688e-06 0)
(1.03873 5.07499e-06 0)
(1.03873 4.16132e-06 0)
(1.03872 3.54782e-06 0)
(1.03872 3.04695e-06 0)
(1.03872 2.72925e-06 0)
(1.03872 2.46401e-06 0)
(1.03872 2.24983e-06 0)
(1.03872 2.06063e-06 0)
(1.03872 2.00325e-06 0)
(1.03872 1.95044e-06 0)
(1.03872 1.95953e-06 0)
(1.03872 1.93508e-06 0)
(1.03872 1.95434e-06 0)
(1.03872 1.89429e-06 0)
(1.03872 1.90145e-06 0)
(1.03872 1.85612e-06 0)
(1.03872 1.87079e-06 0)
(1.03872 1.85451e-06 0)
(1.03872 1.84701e-06 0)
(1.03872 1.79204e-06 0)
(1.03872 1.79668e-06 0)
(1.03872 1.75722e-06 0)
(1.03872 1.78731e-06 0)
(1.03872 1.77478e-06 0)
(1.03872 1.80467e-06 0)
(1.03872 1.77778e-06 0)
(1.03872 1.80729e-06 0)
(1.03872 1.79701e-06 0)
(1.03872 1.81843e-06 0)
(1.03872 1.77808e-06 0)
(1.03872 1.80248e-06 0)
(1.03872 1.77411e-06 0)
(1.03872 1.78694e-06 0)
(1.03872 1.77341e-06 0)
(1.03872 1.79587e-06 0)
(1.03872 1.77469e-06 0)
(1.03872 1.81543e-06 0)
(1.03872 1.8165e-06 0)
(1.03872 1.86449e-06 0)
(1.03872 1.85874e-06 0)
(1.03872 1.88887e-06 0)
(1.03872 1.89263e-06 0)
(1.03872 1.92389e-06 0)
(1.03872 1.90422e-06 0)
(1.03872 1.9218e-06 0)
(1.03872 1.9099e-06 0)
(1.03872 1.93747e-06 0)
(1.03872 1.9594e-06 0)
(1.03872 2.03303e-06 0)
(1.03872 2.10435e-06 0)
(1.03872 2.28049e-06 0)
(1.03872 2.50245e-06 0)
(1.03872 2.85037e-06 0)
(1.03872 3.33687e-06 0)
(1.03872 4.04406e-06 0)
(1.03872 5.01978e-06 0)
(1.03872 6.37855e-06 0)
(1.03872 8.17147e-06 0)
(1.03872 1.06529e-05 0)
(1.03871 1.39278e-05 0)
(1.03871 1.87915e-05 0)
(1.0387 2.49626e-05 0)
(1.03869 3.77335e-05 0)
(1.03866 5.99746e-05 0)
(1.03863 0.000170733 0)
(1.03847 0.000496152 0)
(1.03834 0.00179876 0)
(1.03701 0.00365081 0)
(0.977415 0.0690913 0)
(1.06098 0.0309876 0)
(1.02893 0.00758135 0)
(1.04335 0.000398789 0)
(1.03723 -0.000489192 0)
(1.03991 0.0002652 0)
(1.0388 0.000451207 0)
(1.03927 0.000559889 0)
(1.03904 0.000487853 0)
(1.03911 0.000432258 0)
(1.03905 0.000362296 0)
(1.03905 0.000309047 0)
(1.03902 0.000261677 0)
(1.03901 0.000223004 0)
(1.03899 0.000189543 0)
(1.03898 0.00016113 0)
(1.03896 0.000136716 0)
(1.03895 0.000115298 0)
(1.03894 9.67771e-05 0)
(1.03893 8.05794e-05 0)
(1.03892 6.64706e-05 0)
(1.03892 5.44228e-05 0)
(1.03891 4.41971e-05 0)
(1.0389 3.55706e-05 0)
(1.0389 2.83686e-05 0)
(1.0389 2.25241e-05 0)
(1.03889 1.7782e-05 0)
(1.03889 1.38935e-05 0)
(1.03889 1.08797e-05 0)
(1.03889 8.48625e-06 0)
(1.03889 6.61321e-06 0)
(1.03888 5.10261e-06 0)
(1.03888 3.97639e-06 0)
(1.03888 3.05714e-06 0)
(1.03888 2.42046e-06 0)
(1.03888 1.88747e-06 0)
(1.03888 1.54293e-06 0)
(1.03888 1.25898e-06 0)
(1.03888 1.03013e-06 0)
(1.03888 8.276e-07 0)
(1.03888 7.56849e-07 0)
(1.03888 7.10897e-07 0)
(1.03888 7.22316e-07 0)
(1.03888 6.81146e-07 0)
(1.03888 6.9249e-07 0)
(1.03888 6.36197e-07 0)
(1.03888 6.4342e-07 0)
(1.03888 6.00208e-07 0)
(1.03888 6.08651e-07 0)
(1.03888 5.86889e-07 0)
(1.03888 5.77674e-07 0)
(1.03888 5.22961e-07 0)
(1.03888 5.2926e-07 0)
(1.03888 4.92089e-07 0)
(1.03888 5.17382e-07 0)
(1.03888 5.03993e-07 0)
(1.03888 5.38039e-07 0)
(1.03888 5.11725e-07 0)
(1.03888 5.37505e-07 0)
(1.03888 5.27671e-07 0)
(1.03888 5.51306e-07 0)
(1.03888 5.10623e-07 0)
(1.03888 5.30553e-07 0)
(1.03888 5.03856e-07 0)
(1.03888 5.1681e-07 0)
(1.03888 5.02809e-07 0)
(1.03888 5.31685e-07 0)
(1.03888 5.12996e-07 0)
(1.03888 5.4937e-07 0)
(1.03888 5.55043e-07 0)
(1.03888 6.09564e-07 0)
(1.03888 6.05656e-07 0)
(1.03888 6.32463e-07 0)
(1.03888 6.32544e-07 0)
(1.03888 6.65973e-07 0)
(1.03888 6.49376e-07 0)
(1.03888 6.6663e-07 0)
(1.03888 6.54623e-07 0)
(1.03888 6.80699e-07 0)
(1.03888 7.02171e-07 0)
(1.03888 7.79696e-07 0)
(1.03888 8.58382e-07 0)
(1.03888 1.04241e-06 0)
(1.03888 1.28291e-06 0)
(1.03888 1.65029e-06 0)
(1.03888 2.156e-06 0)
(1.03888 2.87806e-06 0)
(1.03888 3.83886e-06 0)
(1.03888 5.20285e-06 0)
(1.03888 7.03587e-06 0)
(1.03888 9.61573e-06 0)
(1.03888 1.30901e-05 0)
(1.03887 1.84251e-05 0)
(1.03887 2.55131e-05 0)
(1.03886 4.06579e-05 0)
(1.03884 6.66714e-05 0)
(1.03881 0.00018863 0)
(1.03869 0.00053044 0)
(1.03863 0.00191176 0)
(1.03784 0.00385997 0)
(0.975315 0.0610175 0)
(1.05871 0.0294507 0)
(1.02846 0.00750952 0)
(1.04305 0.000351618 0)
(1.03683 -0.000482311 0)
(1.03955 0.000245445 0)
(1.03845 0.000447509 0)
(1.03898 0.000554029 0)
(1.0388 0.000485515 0)
(1.03892 0.00043038 0)
(1.0389 0.00036151 0)
(1.03893 0.000308678 0)
(1.03893 0.000261788 0)
(1.03894 0.000223346 0)
(1.03894 0.000190019 0)
(1.03895 0.000161674 0)
(1.03895 0.000137323 0)
(1.03895 0.000115926 0)
(1.03895 9.73556e-05 0)
(1.03895 8.11017e-05 0)
(1.03895 6.69157e-05 0)
(1.03894 5.47577e-05 0)
(1.03894 4.44325e-05 0)
(1.03894 3.57013e-05 0)
(1.03894 2.83761e-05 0)
(1.03894 2.24256e-05 0)
(1.03894 1.7614e-05 0)
(1.03894 1.36746e-05 0)
(1.03894 1.05992e-05 0)
(1.03894 8.14546e-06 0)
(1.03894 6.23049e-06 0)
(1.03894 4.69156e-06 0)
(1.03894 3.5508e-06 0)
(1.03894 2.62943e-06 0)
(1.03893 1.98841e-06 0)
(1.03893 1.45952e-06 0)
(1.03893 1.10866e-06 0)
(1.03893 8.18195e-07 0)
(1.03893 5.87179e-07 0)
(1.03893 3.86736e-07 0)
(1.03893 3.09609e-07 0)
(1.03893 2.65324e-07 0)
(1.03893 2.78818e-07 0)
(1.03893 2.2527e-07 0)
(1.03893 2.28068e-07 0)
(1.03893 1.78718e-07 0)
(1.03893 1.85019e-07 0)
(1.03893 1.43441e-07 0)
(1.03893 1.44432e-07 0)
(1.03893 1.17658e-07 0)
(1.03893 1.06315e-07 0)
(1.03893 5.44417e-08 0)
(1.03893 6.20266e-08 0)
(1.03893 2.67436e-08 0)
(1.03893 4.68258e-08 0)
(1.03893 3.22527e-08 0)
(1.03893 6.93582e-08 0)
(1.03893 4.63941e-08 0)
(1.03893 6.65024e-08 0)
(1.03893 5.57958e-08 0)
(1.03893 8.15613e-08 0)
(1.03893 4.37354e-08 0)
(1.03893 6.01189e-08 0)
(1.03893 3.599e-08 0)
(1.03893 4.87608e-08 0)
(1.03893 3.22521e-08 0)
(1.03893 6.54462e-08 0)
(1.03893 5.28668e-08 0)
(1.03893 8.47048e-08 0)
(1.03893 9.35326e-08 0)
(1.03893 1.53901e-07 0)
(1.03893 1.55065e-07 0)
(1.03893 1.78716e-07 0)
(1.03893 1.75508e-07 0)
(1.03893 2.09524e-07 0)
(1.03893 1.96473e-07 0)
(1.03893 2.1214e-07 0)
(1.03893 1.99463e-07 0)
(1.03893 2.21929e-07 0)
(1.03893 2.40932e-07 0)
(1.03893 3.18561e-07 0)
(1.03893 4.00235e-07 0)
(1.03893 5.82382e-07 0)
(1.03893 8.28758e-07 0)
(1.03893 1.20236e-06 0)
(1.03893 1.68623e-06 0)
(1.03893 2.38873e-06 0)
(1.03893 3.33637e-06 0)
(1.03893 4.69433e-06 0)
(1.03893 6.53948e-06 0)
(1.03893 9.16775e-06 0)
(1.03893 1.27651e-05 0)
(1.03893 1.84451e-05 0)
(1.03893 2.62653e-05 0)
(1.03892 4.3316e-05 0)
(1.03891 7.22313e-05 0)
(1.03889 0.000201556 0)
(1.03882 0.000550085 0)
(1.03882 0.00196724 0)
(1.03856 0.00394887 0)
(0.973629 0.0535918 0)
(1.05672 0.02753 0)
(1.02803 0.00726841 0)
(1.04273 0.000305337 0)
(1.03644 -0.000468278 0)
(1.03919 0.00022214 0)
(1.0381 0.000433662 0)
(1.03869 0.000536233 0)
(1.03855 0.000472385 0)
(1.03871 0.00041903 0)
(1.03872 0.000352738 0)
(1.03878 0.000301532 0)
(1.03881 0.000256195 0)
(1.03884 0.000218865 0)
(1.03886 0.000186429 0)
(1.03888 0.000158802 0)
(1.0389 0.000135076 0)
(1.03891 0.000114206 0)
(1.03892 9.60327e-05 0)
(1.03893 8.01062e-05 0)
(1.03893 6.61917e-05 0)
(1.03894 5.42266e-05 0)
(1.03894 4.40519e-05 0)
(1.03895 3.54377e-05 0)
(1.03895 2.8183e-05 0)
(1.03895 2.2278e-05 0)
(1.03895 1.75167e-05 0)
(1.03895 1.3619e-05 0)
(1.03895 1.05563e-05 0)
(1.03895 8.09809e-06 0)
(1.03895 6.17736e-06 0)
(1.03895 4.63728e-06 0)
(1.03895 3.49363e-06 0)
(1.03895 2.57168e-06 0)
(1.03895 1.92921e-06 0)
(1.03895 1.39954e-06 0)
(1.03895 1.0443e-06 0)
(1.03895 7.57244e-07 0)
(1.03895 5.36706e-07 0)
(1.03895 3.50756e-07 0)
(1.03895 2.76287e-07 0)
(1.03895 2.28796e-07 0)
(1.03895 2.45077e-07 0)
(1.03895 1.85147e-07 0)
(1.03895 1.81233e-07 0)
(1.03895 1.39151e-07 0)
(1.03895 1.45179e-07 0)
(1.03895 1.02953e-07 0)
(1.03895 9.97481e-08 0)
(1.03895 6.99745e-08 0)
(1.03895 5.76074e-08 0)
(1.03895 8.91489e-09 0)
(1.03895 1.70218e-08 0)
(1.03895 -1.75613e-08 0)
(1.03895 -1.19708e-09 0)
(1.03895 -1.89603e-08 0)
(1.03895 2.01791e-08 0)
(1.03895 2.70445e-09 0)
(1.03895 1.77421e-08 0)
(1.03895 4.32457e-09 0)
(1.03895 3.26317e-08 0)
(1.03895 -1.74131e-09 0)
(1.03895 1.31974e-08 0)
(1.03895 -8.60744e-09 0)
(1.03895 4.47518e-09 0)
(1.03895 -1.5709e-08 0)
(1.03895 1.91036e-08 0)
(1.03895 1.43061e-08 0)
(1.03895 4.35061e-08 0)
(1.03895 5.11961e-08 0)
(1.03895 1.15651e-07 0)
(1.03895 1.23527e-07 0)
(1.03895 1.46102e-07 0)
(1.03895 1.39342e-07 0)
(1.03895 1.72866e-07 0)
(1.03895 1.61963e-07 0)
(1.03895 1.75528e-07 0)
(1.03895 1.60479e-07 0)
(1.03895 1.78647e-07 0)
(1.03895 1.92824e-07 0)
(1.03895 2.67481e-07 0)
(1.03895 3.4624e-07 0)
(1.03895 5.17168e-07 0)
(1.03895 7.55381e-07 0)
(1.03895 1.12309e-06 0)
(1.03895 1.59179e-06 0)
(1.03895 2.27627e-06 0)
(1.03895 3.21106e-06 0)
(1.03895 4.5511e-06 0)
(1.03895 6.37998e-06 0)
(1.03895 9.00578e-06 0)
(1.03895 1.26435e-05 0)
(1.03895 1.85208e-05 0)
(1.03895 2.68393e-05 0)
(1.03895 4.52098e-05 0)
(1.03895 7.60038e-05 0)
(1.03893 0.00020865 0)
(1.03892 0.000554781 0)
(1.03898 0.00196705 0)
(1.03921 0.00392554 0)
(0.972276 0.0467073 0)
(1.055 0.0252982 0)
(1.02766 0.00687883 0)
(1.04244 0.000261388 0)
(1.03609 -0.000446952 0)
(1.03886 0.000196634 0)
(1.03778 0.000410631 0)
(1.03841 0.000507597 0)
(1.03831 0.000449255 0)
(1.0385 0.000398825 0)
(1.03855 0.000336389 0)
(1.03864 0.000287861 0)
(1.03869 0.000245014 0)
(1.03874 0.000209579 0)
(1.03878 0.000178706 0)
(1.03881 0.000152384 0)
(1.03884 0.000129792 0)
(1.03886 0.000109905 0)
(1.03888 9.25395e-05 0)
(1.0389 7.72934e-05 0)
(1.03891 6.39665e-05 0)
(1.03892 5.24727e-05 0)
(1.03893 4.26784e-05 0)
(1.03894 3.43845e-05 0)
(1.03894 2.73818e-05 0)
(1.03895 2.16644e-05 0)
(1.03895 1.70673e-05 0)
(1.03895 1.33014e-05 0)
(1.03895 1.0329e-05 0)
(1.03895 7.93124e-06 0)
(1.03896 6.05232e-06 0)
(1.03896 4.54772e-06 0)
(1.03896 3.42688e-06 0)
(1.03896 2.52067e-06 0)
(1.03896 1.8928e-06 0)
(1.03896 1.3703e-06 0)
(1.03896 1.01903e-06 0)
(1.03896 7.37522e-07 0)
(1.03896 5.28198e-07 0)
(1.03896 3.56929e-07 0)
(1.03896 2.83042e-07 0)
(1.03896 2.28404e-07 0)
(1.03896 2.48526e-07 0)
(1.03896 1.88942e-07 0)
(1.03896 1.81356e-07 0)
(1.03896 1.44697e-07 0)
(1.03896 1.51629e-07 0)
(1.03896 1.05893e-07 0)
(1.03896 1.02191e-07 0)
(1.03896 7.20342e-08 0)
(1.03896 6.08809e-08 0)
(1.03896 1.36741e-08 0)
(1.03896 2.16793e-08 0)
(1.03896 -1.25137e-08 0)
(1.03896 2.62266e-09 0)
(1.03896 -2.03128e-08 0)
(1.03896 1.91267e-08 0)
(1.03896 7.71422e-09 0)
(1.03896 2.05089e-08 0)
(1.03896 3.05636e-09 0)
(1.03896 3.38229e-08 0)
(1.03896 2.34801e-09 0)
(1.03896 1.70993e-08 0)
(1.03896 -3.40894e-09 0)
(1.03896 1.1016e-08 0)
(1.03896 -1.31554e-08 0)
(1.03896 2.06515e-08 0)
(1.03896 2.36602e-08 0)
(1.03896 5.41543e-08 0)
(1.03896 5.67188e-08 0)
(1.03896 1.22798e-07 0)
(1.03896 1.37251e-07 0)
(1.03896 1.61153e-07 0)
(1.03896 1.50469e-07 0)
(1.03896 1.82584e-07 0)
(1.03896 1.71678e-07 0)
(1.03896 1.8308e-07 0)
(1.03896 1.63817e-07 0)
(1.03896 1.78196e-07 0)
(1.03896 1.85915e-07 0)
(1.03896 2.55404e-07 0)
(1.03896 3.34236e-07 0)
(1.03896 4.97138e-07 0)
(1.03896 7.24785e-07 0)
(1.03896 1.08101e-06 0)
(1.03896 1.53107e-06 0)
(1.03896 2.18776e-06 0)
(1.03896 3.08977e-06 0)
(1.03896 4.38415e-06 0)
(1.03896 6.15624e-06 0)
(1.03896 8.71889e-06 0)
(1.03896 1.2304e-05 0)
(1.03896 1.82097e-05 0)
(1.03897 2.67534e-05 0)
(1.03897 4.5781e-05 0)
(1.03897 7.7351e-05 0)
(1.03896 0.000209241 0)
(1.03901 0.000544365 0)
(1.03912 0.00191381 0)
(1.03982 0.00379857 0)
(0.971192 0.0402743 0)
(1.05353 0.0228144 0)
(1.02734 0.00635993 0)
(1.04218 0.000220551 0)
(1.03579 -0.000418086 0)
(1.03856 0.000170201 0)
(1.03748 0.000379577 0)
(1.03816 0.000469385 0)
(1.03809 0.000417149 0)
(1.03832 0.000370624 0)
(1.03839 0.000313139 0)
(1.0385 0.000268206 0)
(1.03857 0.000228665 0)
(1.03864 0.000195824 0)
(1.0387 0.000167115 0)
(1.03874 0.000142622 0)
(1.03878 0.00012162 0)
(1.03882 0.000103124 0)
(1.03885 8.69403e-05 0)
(1.03887 7.26975e-05 0)
(1.03889 6.02416e-05 0)