/*--------------------------------*- C++ -*----------------------------------*\
  =========                 |
  \\      /  F ield         | OpenFOAM: The Open Source CFD Toolbox
   \\    /   O peration     | Website:  https://openfoam.org
    \\  /    A nd           | Version:  7
     \\/     M anipulation  |
\*---------------------------------------------------------------------------*/
FoamFile
{
    version     2.0;
    format      ascii;
    class       volScalarField;
    location    "3.5";
    object      pB;
}
// * * * * * * * * * * * * * * * * * * * * * * * * * * * * * * * * * * * * * //

dimensions      [1 1 -3 0 0 -1 0];

internalField   nonuniform List<scalar> 
4000
(
28.5002
65.5318
85.7902
93.2523
93.0857
87.9191
80.2048
71.3553
62.3432
53.7075
45.7577
38.6313
32.3678
26.9432
22.2991
18.3592
15.0416
12.2647
9.952
8.03392
6.44863
5.14221
4.06821
3.18709
2.46546
1.87531
1.39324
0.999853
0.679088
0.417705
0.204808
0.0314989
-0.10956
-0.224339
-0.317726
-0.393691
-0.455501
-0.505775
-0.546683
-0.579958
-0.607041
-0.629066
-0.646998
-0.661587
-0.673466
-0.683124
-0.690992
-0.697383
-0.702587
-0.70681
-0.710255
-0.713045
-0.715319
-0.717162
-0.718669
-0.719886
-0.720886
-0.721692
-0.722357
-0.722888
-0.723325
-0.723665
-0.723938
-0.724137
-0.724284
-0.724366
-0.724405
-0.724378
-0.724301
-0.724148
-0.723922
-0.723585
-0.723125
-0.722487
-0.721635
-0.72048
-0.718944
-0.716889
-0.714162
-0.710536
-0.70575
-0.699436
-0.69116
-0.680343
-0.666308
-0.648208
-0.625072
-0.595798
-0.55926
-0.51442
-0.460658
-0.398217
-0.32909
-0.258237
-0.195573
-0.157865
-0.168527
-0.246697
-0.364396
-0.362256
30.653
65.5466
85.051
92.4412
92.303
87.2324
79.613
70.8548
61.9231
53.3587
45.4706
38.3975
32.1796
26.7936
22.182
18.2694
14.9745
12.2164
9.91926
8.01399
6.43919
5.14137
4.07438
3.19897
2.48199
1.89562
1.41661
1.0257
0.706941
0.447182
0.235598
0.0633453
-0.0768588
-0.190949
-0.283782
-0.3593
-0.42075
-0.470735
-0.51141
-0.544497
-0.571429
-0.593335
-0.611169
-0.625681
-0.637498
-0.647106
-0.654933
-0.661294
-0.666473
-0.670676
-0.674105
-0.676883
-0.679147
-0.680982
-0.682484
-0.683696
-0.684691
-0.685494
-0.686156
-0.686684
-0.687119
-0.687457
-0.687729
-0.687928
-0.688074
-0.688156
-0.688194
-0.688168
-0.688092
-0.68794
-0.687715
-0.68738
-0.686922
-0.686288
-0.685441
-0.684292
-0.682764
-0.680721
-0.678009
-0.674403
-0.669644
-0.663367
-0.655139
-0.644387
-0.630438
-0.612452
-0.589467
-0.560394
-0.52412
-0.479626
-0.426311
-0.364435
-0.295985
-0.225848
-0.163668
-0.125404
-0.132487
-0.199853
-0.297063
-0.289119
31.9665
65.4135
83.9855
91.1978
91.0605
86.1054
78.6197
69.9993
61.1952
52.7472
44.9625
37.9801
31.8406
26.5219
21.9674
18.103
14.8484
12.1239
9.85468
7.97243
6.41659
5.13431
4.08006
3.21505
2.50655
1.92707
1.45367
1.06731
0.752238
0.495471
0.286307
0.116009
-0.0226129
-0.135426
-0.227228
-0.301917
-0.362695
-0.412141
-0.452379
-0.485115
-0.511764
-0.533445
-0.551096
-0.56546
-0.57716
-0.586675
-0.594426
-0.600727
-0.605858
-0.610023
-0.61342
-0.616176
-0.618421
-0.620241
-0.621729
-0.622933
-0.62392
-0.624716
-0.625372
-0.625896
-0.626326
-0.626662
-0.626931
-0.627128
-0.627273
-0.627355
-0.627393
-0.627368
-0.627292
-0.627142
-0.62692
-0.626588
-0.626135
-0.625509
-0.62467
-0.623535
-0.622023
-0.620002
-0.61732
-0.613754
-0.609047
-0.602841
-0.594705
-0.584079
-0.570291
-0.552518
-0.529811
-0.501099
-0.46529
-0.421392
-0.368826
-0.307859
-0.240437
-0.17128
-0.109528
-0.0698253
-0.0708307
-0.122365
-0.194324
-0.178381
32.0608
64.7771
82.4323
89.3855
89.2335
84.4202
77.1162
68.6891
60.0692
51.7911
44.1588
37.311
31.2885
26.0704
21.6016
17.8096
14.6157
11.9419
9.71482
7.86741
6.34027
5.08158
4.04666
3.19746
2.50185
1.93288
1.46802
1.0886
0.779165
0.52697
0.321512
0.15421
0.0180134
-0.0928386
-0.183057
-0.256467
-0.316211
-0.364824
-0.404389
-0.436584
-0.462794
-0.484124
-0.501491
-0.515628
-0.527145
-0.536513
-0.544146
-0.550353
-0.555409
-0.559514
-0.562862
-0.565581
-0.567795
-0.569591
-0.57106
-0.572249
-0.573222
-0.574008
-0.574654
-0.575171
-0.575595
-0.575926
-0.576191
-0.576386
-0.576529
-0.576611
-0.576647
-0.576625
-0.57655
-0.576402
-0.576183
-0.575859
-0.575412
-0.574797
-0.573972
-0.572858
-0.571372
-0.569386
-0.56675
-0.563246
-0.558621
-0.552524
-0.544532
-0.534096
-0.520556
-0.503108
-0.480823
-0.452655
-0.417544
-0.374528
-0.323053
-0.263387
-0.197395
-0.12952
-0.0681562
-0.0261403
-0.0186559
-0.04995
-0.0926257
-0.0644614
31.2539
63.5146
80.3615
87.0148
86.8423
82.1938
75.1158
66.9343
58.5526
50.4963
43.0642
36.3937
30.5258
25.4408
21.0856
17.3897
14.2766
11.6703
9.49919
7.69816
6.20929
4.98205
3.97293
3.14484
2.46647
1.91155
1.45814
1.08802
0.786137
0.540075
0.339593
0.17632
0.0433856
-0.0648261
-0.152909
-0.224593
-0.282942
-0.330428
-0.369082
-0.400542
-0.426159
-0.447011
-0.463993
-0.477819
-0.489086
-0.498254
-0.505725
-0.511803
-0.516755
-0.520778
-0.524058
-0.526725
-0.528898
-0.53066
-0.5321
-0.53327
-0.534224
-0.534996
-0.535629
-0.536136
-0.53655
-0.536875
-0.537134
-0.537326
-0.537465
-0.537547
-0.537583
-0.537562
-0.537489
-0.537346
-0.537131
-0.536815
-0.536378
-0.535778
-0.534972
-0.533885
-0.532434
-0.530495
-0.527922
-0.524503
-0.519988
-0.514038
-0.50624
-0.49606
-0.482853
-0.46584
-0.444115
-0.416671
-0.382479
-0.340619
-0.29056
-0.232561
-0.168366
-0.102043
-0.0410454
0.00394969
0.0215865
0.0129823
0.00136252
0.0413156
29.9104
61.635
77.768
84.108
83.9171
79.4552
72.6438
64.7571
56.6651
48.8805
41.6946
35.2428
29.5659
24.6458
20.4313
16.8544
13.8414
11.3188
9.21726
7.47386
6.03253
4.84442
3.86739
3.06559
2.4087
1.8713
1.43216
1.07365
0.781212
0.542815
0.348555
0.190325
0.0614768
-0.0434248
-0.128827
-0.198344
-0.254937
-0.301005
-0.338512
-0.369044
-0.393911
-0.414159
-0.430653
-0.444085
-0.455034
-0.463948
-0.471212
-0.477125
-0.481944
-0.485862
-0.489055
-0.491654
-0.493772
-0.495491
-0.496896
-0.498037
-0.498968
-0.499721
-0.500337
-0.500831
-0.501234
-0.50155
-0.501802
-0.501989
-0.502125
-0.502206
-0.50224
-0.502221
-0.502151
-0.502012
-0.501803
-0.501497
-0.501073
-0.500492
-0.49971
-0.498657
-0.497249
-0.49537
-0.492875
-0.489562
-0.485186
-0.479421
-0.471865
-0.462004
-0.449214
-0.432741
-0.411715
-0.385164
-0.352106
-0.311663
-0.263326
-0.207335
-0.145279
-0.0807736
-0.0201885
0.0281559
0.0567975
0.0716873
0.0910701
0.138578
28.2527
59.1942
74.6609
80.6862
80.4841
76.23
69.7234
62.1773
54.4241
46.9585
40.063
33.8696
28.4189
23.6939
19.6462
16.2106
13.3164
10.8931
8.8742
7.19927
5.81447
4.67288
3.73405
2.96353
2.33222
1.8157
1.39358
1.04893
0.767761
0.538519
0.351696
0.199499
0.075542
-0.0253936
-0.107582
-0.174496
-0.228981
-0.273341
-0.309466
-0.338881
-0.362842
-0.382359
-0.398262
-0.411217
-0.421779
-0.430382
-0.437395
-0.443106
-0.447762
-0.451551
-0.454639
-0.457152
-0.459204
-0.460869
-0.462229
-0.463335
-0.464237
-0.464966
-0.465562
-0.46604
-0.466429
-0.466734
-0.466977
-0.467158
-0.467289
-0.467368
-0.467402
-0.467384
-0.467316
-0.467183
-0.466981
-0.466687
-0.466279
-0.465719
-0.464967
-0.463954
-0.462599
-0.460791
-0.458391
-0.455203
-0.450994
-0.44545
-0.438183
-0.428703
-0.41641
-0.400581
-0.380384
-0.354893
-0.323174
-0.284394
-0.23807
-0.184408
-0.124816
-0.0624004
-0.00237226
0.0493638
0.0890908
0.126932
0.175492
0.225126
26.4079
56.2628
71.0611
76.7723
76.5688
72.5434
66.3766
59.2144
51.8457
44.7442
38.1811
32.284
27.0928
22.5922
18.7361
15.463
12.7055
10.3965
8.4728
6.87672
5.55705
4.46908
3.57428
2.83985
2.23806
1.74564
1.34318
1.01455
0.746409
0.52776
0.349545
0.20434
0.0860552
-0.0102781
-0.0887329
-0.15262
-0.204651
-0.247023
-0.281536
-0.309644
-0.332547
-0.351206
-0.366416
-0.378809
-0.388917
-0.397153
-0.40387
-0.409342
-0.413805
-0.417439
-0.420402
-0.422815
-0.424786
-0.426387
-0.427694
-0.428757
-0.429624
-0.430324
-0.430896
-0.431354
-0.431726
-0.432019
-0.432251
-0.432423
-0.432549
-0.432626
-0.432658
-0.432642
-0.432577
-0.43245
-0.432257
-0.431976
-0.431586
-0.431052
-0.430333
-0.429366
-0.428073
-0.426347
-0.424056
-0.421015
-0.416999
-0.41171
-0.404779
-0.395739
-0.384019
-0.368933
-0.349691
-0.32542
-0.295235
-0.258353
-0.214315
-0.163283
-0.106469
-0.0464385
0.0127794
0.0676246
0.117808
0.176824
0.251103
0.29789
24.4516
52.9131
66.9997
72.3928
72.1979
68.4214
62.6273
55.8888
48.9477
42.2526
36.0614
30.4965
25.5966
21.3478
17.7072
14.6167
12.0128
9.83245
8.01578
6.50844
5.26206
4.23445
3.38925
2.69547
2.12695
1.66171
1.28142
0.970867
0.717442
0.510762
0.34228
0.204984
0.0931216
0.0020031
-0.072218
-0.13267
-0.181913
-0.222022
-0.2547
-0.281321
-0.303016
-0.320694
-0.33511
-0.34686
-0.356445
-0.364259
-0.370635
-0.375831
-0.380072
-0.383526
-0.386345
-0.388639
-0.390516
-0.392041
-0.393286
-0.394299
-0.395125
-0.395792
-0.396335
-0.396771
-0.397123
-0.3974
-0.39762
-0.397783
-0.397902
-0.397975
-0.398006
-0.39799
-0.397929
-0.397809
-0.397626
-0.397359
-0.396991
-0.396484
-0.395804
-0.394889
-0.393666
-0.392033
-0.389866
-0.38699
-0.383192
-0.378192
-0.37164
-0.363096
-0.352023
-0.337774
-0.319609
-0.296705
-0.268238
-0.233474
-0.191976
-0.143861
-0.090131
-0.0328086
0.0252272
0.0825813
0.141942
0.219258
0.314587
0.354751
22.4282
49.2129
62.5145
67.5781
67.4005
63.8922
58.5008
52.2231
45.7493
39.5001
33.718
28.5189
23.94
19.969
16.5661
13.6772
11.2431
9.20469
7.50625
6.09694
4.93157
3.97069
3.18032
2.53151
1.99979
1.56463
1.2089
0.918367
0.681251
0.487845
0.330162
0.201648
0.0969219
0.0116011
-0.0579096
-0.114535
-0.160672
-0.198258
-0.228887
-0.253843
-0.274187
-0.290768
-0.304293
-0.315319
-0.324318
-0.331656
-0.337647
-0.342531
-0.346519
-0.34977
-0.352423
-0.354583
-0.356352
-0.35779
-0.358965
-0.359919
-0.360698
-0.361326
-0.361837
-0.362246
-0.362577
-0.362835
-0.363041
-0.363193
-0.363305
-0.363373
-0.363403
-0.363387
-0.36333
-0.363217
-0.363045
-0.362793
-0.362448
-0.361973
-0.361335
-0.360478
-0.359333
-0.357802
-0.355773
-0.35308
-0.349525
-0.344845
-0.338713
-0.330719
-0.320363
-0.307039
-0.290062
-0.268667
-0.242087
-0.209643
-0.170923
-0.125991
-0.0756467
-0.0213866
0.0349767
0.0939469
0.160647
0.252538
0.363533
0.394724
20.3629
45.2218
57.6469
62.3618
62.208
58.9853
54.0243
48.2412
42.2715
36.5045
31.1659
26.364
22.1339
18.4649
15.3204
12.6508
10.4013
8.51739
6.94763
5.64504
4.56786
3.67966
2.94901
2.3492
1.85759
1.45523
1.12628
0.857588
0.638276
0.459368
0.313484
0.194571
0.0976529
0.0186792
-0.0456715
-0.0981027
-0.140831
-0.175646
-0.204023
-0.227149
-0.246005
-0.261377
-0.273919
-0.284147
-0.292497
-0.299309
-0.304872
-0.309409
-0.313116
-0.316139
-0.318608
-0.320618
-0.322265
-0.323605
-0.324699
-0.325588
-0.326314
-0.326898
-0.327372
-0.327752
-0.328058
-0.328296
-0.328486
-0.328625
-0.328728
-0.32879
-0.328818
-0.328802
-0.328749
-0.328643
-0.328483
-0.328249
-0.327929
-0.327488
-0.326897
-0.326102
-0.325041
-0.323624
-0.321745
-0.319252
-0.315962
-0.311632
-0.30596
-0.298566
-0.28899
-0.276674
-0.260988
-0.241228
-0.216693
-0.186756
-0.151031
-0.109535
-0.0628713
-0.0120554
0.0420416
0.101491
0.173255
0.275418
0.396396
0.417648
18.27
40.9905
52.4393
56.7799
56.6533
53.732
49.2264
43.9689
38.5366
33.2852
28.4216
24.0455
20.1897
16.8449
13.9781
11.544
9.49287
7.77506
6.34362
5.15576
4.17341
3.36336
2.69697
2.14986
1.70143
1.33438
1.03426
0.789106
0.588982
0.425707
0.292552
0.184002
0.0955152
0.0234001
-0.0353717
-0.0832647
-0.122302
-0.154115
-0.18005
-0.20119
-0.218431
-0.232487
-0.24396
-0.253319
-0.260962
-0.267198
-0.272294
-0.276451
-0.279849
-0.282622
-0.284889
-0.286732
-0.288245
-0.289475
-0.290481
-0.291296
-0.291963
-0.292499
-0.292933
-0.293279
-0.293558
-0.293773
-0.293946
-0.294071
-0.294164
-0.294219
-0.294244
-0.294229
-0.294178
-0.294081
-0.293934
-0.293718
-0.293425
-0.293021
-0.29248
-0.291752
-0.290783
-0.289487
-0.28777
-0.285493
-0.282489
-0.278536
-0.273359
-0.266611
-0.257875
-0.246643
-0.232343
-0.214336
-0.191987
-0.164728
-0.132199
-0.0943744
-0.0516792
-0.00471059
0.0464458
0.105056
0.179308
0.287113
0.412411
0.42395
16.1574
36.5622
46.9341
50.8698
50.7712
48.165
44.1373
39.4328
34.5681
29.8625
25.5024
21.5782
18.1199
15.1196
12.5478
10.364
8.52379
6.98255
5.6982
4.63235
3.75087
3.02397
2.42595
1.93496
1.53249
1.20303
0.933635
0.713553
0.533881
0.387277
0.267702
0.170211
0.0907281
0.025941
-0.0268667
-0.0699053
-0.104992
-0.13359
-0.156907
-0.175917
-0.191424
-0.204068
-0.214391
-0.222814
-0.229695
-0.23531
-0.239902
-0.243649
-0.246712
-0.249213
-0.251259
-0.252923
-0.254288
-0.255399
-0.256308
-0.257043
-0.257644
-0.258126
-0.258516
-0.258826
-0.259075
-0.259267
-0.259419
-0.25953
-0.259612
-0.259659
-0.25968
-0.259665
-0.259618
-0.259529
-0.259396
-0.2592
-0.258935
-0.25857
-0.258082
-0.257425
-0.256553
-0.255388
-0.253843
-0.251796
-0.249097
-0.245546
-0.240897
-0.234837
-0.226996
-0.216916
-0.204087
-0.187939
-0.167906
-0.143479
-0.114327
-0.080393
-0.0419454
0.000762195
0.0482516
0.10459
0.178592
0.287316
0.411529
0.414505
14.0299
31.9728
41.1721
44.6702
44.5977
42.3183
38.7882
34.6613
30.3907
26.2576
22.4265
18.9775
15.9375
13.2997
11.0385
9.1184
7.50028
6.14502
5.01561
4.07831
3.30311
2.66384
2.13789
1.70603
1.35203
1.06223
0.825238
0.631616
0.473533
0.344533
0.239303
0.153499
0.0835364
0.0265009
-0.019995
-0.0578934
-0.0887949
-0.113983
-0.134524
-0.151273
-0.164937
-0.176081
-0.18518
-0.192606
-0.198675
-0.203629
-0.207681
-0.210989
-0.213695
-0.215904
-0.217713
-0.219183
-0.22039
-0.221372
-0.222176
-0.222825
-0.223355
-0.223779
-0.224122
-0.224392
-0.224609
-0.224775
-0.224906
-0.225001
-0.225071
-0.225109
-0.225126
-0.225111
-0.225067
-0.224986
-0.224867
-0.224692
-0.224456
-0.224133
-0.223701
-0.223121
-0.22235
-0.221322
-0.21996
-0.218156
-0.215779
-0.212652
-0.20856
-0.203227
-0.196327
-0.18746
-0.17618
-0.161986
-0.144383
-0.122926
-0.0973162
-0.0674711
-0.0335357
0.00449911
0.0475752
0.100168
0.171153
0.276179
0.394331
0.390536
11.8905
27.2532
35.1924
38.2198
38.1702
36.227
33.2115
29.6834
26.0303
22.4931
19.2132
16.2598
13.6562
11.3968
9.45988
7.81508
6.42891
5.26788
4.30031
3.4973
2.83315
2.28543
1.83478
1.46475
1.16141
0.913073
0.709977
0.544035
0.408542
0.297968
0.207759
0.134196
0.0742089
0.0252994
-0.0145768
-0.0470822
-0.0735896
-0.0951981
-0.112821
-0.127192
-0.138918
-0.148481
-0.156292
-0.162667
-0.167879
-0.172134
-0.175616
-0.17846
-0.180786
-0.182686
-0.184243
-0.185508
-0.186546
-0.187389
-0.188081
-0.188638
-0.189092
-0.189455
-0.189747
-0.189975
-0.190158
-0.190296
-0.190405
-0.190482
-0.190539
-0.190569
-0.19058
-0.190564
-0.190524
-0.190451
-0.190347
-0.190194
-0.189989
-0.189709
-0.189336
-0.188834
-0.188171
-0.187286
-0.186115
-0.184565
-0.182525
-0.179842
-0.176332
-0.171759
-0.165844
-0.158245
-0.148579
-0.136422
-0.121351
-0.102984
-0.08106
-0.0554829
-0.0263047
0.00666169
0.0445918
0.0919938
0.15729
0.254289
0.361948
0.353537
9.74147
22.4296
29.0325
31.5579
31.5266
29.9273
27.4407
24.5295
21.5135
18.5921
15.8824
13.4419
11.2902
9.42285
7.82189
6.46234
5.31654
4.35681
3.55698
2.89317
2.34413
1.89133
1.51878
1.21286
0.962068
0.756741
0.588812
0.451596
0.339553
0.248111
0.173503
0.112657
0.0630361
0.0225747
-0.0104169
-0.0373112
-0.0592449
-0.0771255
-0.0917082
-0.1036
-0.113306
-0.12122
-0.127686
-0.132963
-0.137279
-0.140802
-0.143688
-0.146044
-0.147973
-0.149547
-0.15084
-0.151888
-0.152748
-0.153447
-0.15402
-0.154479
-0.154853
-0.15515
-0.155389
-0.155573
-0.15572
-0.155829
-0.155914
-0.155973
-0.156016
-0.156036
-0.156042
-0.156025
-0.155988
-0.155924
-0.155834
-0.155704
-0.155531
-0.155295
-0.154984
-0.154564
-0.154011
-0.153275
-0.152303
-0.151017
-0.149326
-0.147104
-0.144199
-0.140413
-0.135519
-0.129234
-0.121242
-0.111192
-0.0987382
-0.0835649
-0.0654496
-0.0442966
-0.0200955
0.00743722
0.0395352
0.0803973
0.137543
0.222619
0.315972
0.305209
7.58471
17.525
22.7277
24.7233
24.7054
23.4559
21.5099
19.2303
16.8677
14.5784
12.4545
10.5413
8.85433
7.39018
6.13484
5.06877
4.17028
3.41769
2.79047
2.26991
1.83936
1.48426
1.1921
0.952184
0.755494
0.594459
0.462751
0.355127
0.267244
0.195517
0.136991
0.0892574
0.0503272
0.0185811
-0.00730599
-0.0284081
-0.0456189
-0.0596486
-0.0710902
-0.0804199
-0.0880355
-0.0942435
-0.0993161
-0.103456
-0.106843
-0.109607
-0.111874
-0.113725
-0.11524
-0.116476
-0.117492
-0.118316
-0.118991
-0.119537
-0.119986
-0.120344
-0.120634
-0.120862
-0.121045
-0.121183
-0.121292
-0.121372
-0.121432
-0.121472
-0.1215
-0.12151
-0.12151
-0.121492
-0.121458
-0.121403
-0.121328
-0.121222
-0.121081
-0.120891
-0.120642
-0.120308
-0.119868
-0.119285
-0.118517
-0.117504
-0.116172
-0.114425
-0.112143
-0.109169
-0.105326
-0.100392
-0.0941207
-0.0862381
-0.0764715
-0.0645763
-0.0503731
-0.0337754
-0.0147403
0.00703787
0.0326951
0.0658241
0.112667
0.182478
0.258373
0.247417
5.42194
12.5597
16.3121
17.7548
17.7458
16.8504
15.454
13.8175
12.1209
10.4765
8.9506
7.57593
6.36367
5.31149
4.40934
3.64318
2.99745
2.45657
2.00579
1.63166
1.32222
1.06701
0.857031
0.684603
0.543239
0.427502
0.33284
0.255487
0.192322
0.14077
0.0987026
0.0643915
0.0364071
0.0135864
-0.0050231
-0.0201907
-0.0325608
-0.0426428
-0.0508636
-0.0575646
-0.0630352
-0.0674921
-0.071134
-0.0741057
-0.076538
-0.0785221
-0.080151
-0.0814816
-0.0825709
-0.0834588
-0.0841898
-0.0847809
-0.085265
-0.0856545
-0.0859748
-0.0862269
-0.0864304
-0.0865875
-0.086712
-0.0868033
-0.0868731
-0.0869218
-0.0869572
-0.0869768
-0.0869906
-0.0869904
-0.0869831
-0.0869638
-0.0869336
-0.0868872
-0.0868277
-0.0867448
-0.086638
-0.0864947
-0.0863096
-0.0860621
-0.0857386
-0.0853125
-0.0847537
-0.0840181
-0.0830554
-0.0817934
-0.0801483
-0.0780047
-0.0752364
-0.0716838
-0.0671702
-0.0614997
-0.0544761
-0.0459255
-0.0357153
-0.0237772
-0.0100615
0.00569833
0.0244108
0.0488218
0.0836006
0.135453
0.19143
0.182146
3.25486
7.55226
9.81824
10.691
10.6872
10.1488
9.30843
8.32324
7.3016
6.31123
5.39212
4.564
3.83367
3.19974
2.6562
2.19458
1.80552
1.47964
1.20804
0.982622
0.796183
0.64243
0.51593
0.412056
0.326897
0.257178
0.200157
0.153564
0.115518
0.084471
0.0591334
0.0384682
0.0216131
0.00786912
-0.00333806
-0.0124684
-0.0199132
-0.0259776
-0.0309202
-0.0349449
-0.0382308
-0.0409041
-0.0430882
-0.044869
-0.0463282
-0.0475166
-0.0484947
-0.049294
-0.0499486
-0.0504803
-0.0509196
-0.051273
-0.0515618
-0.0517907
-0.051979
-0.0521233
-0.0522381
-0.052322
-0.0523873
-0.0524303
-0.0524604
-0.0524773
-0.0524872
-0.0524869
-0.0524852
-0.0524745
-0.0524608
-0.0524397
-0.052413
-0.0523754
-0.0523315
-0.0522723
-0.0521997
-0.0521035
-0.0519833
-0.051824
-0.0516189
-0.0513516
-0.0510055
-0.0505527
-0.0499644
-0.0491954
-0.0481975
-0.0468974
-0.0452209
-0.0430711
-0.0403423
-0.0369167
-0.032676
-0.0275174
-0.0213587
-0.0141563
-0.00587266
0.00367228
0.0150631
0.0300215
0.0514314
0.083352
0.117648
0.111473
1.08519
2.52006
3.27781
3.56995
3.56902
3.38942
3.10886
2.7799
2.4387
2.10786
1.80077
1.52405
1.27997
1.06809
0.886413
0.732129
0.602094
0.493179
0.402411
0.327084
0.264792
0.213435
0.171193
0.136514
0.108089
0.0848258
0.065802
0.0502635
0.0375792
0.027235
0.0187913
0.0119067
0.00629152
0.00171564
-0.00201393
-0.00504508
-0.00751345
-0.00951813
-0.011148
-0.0124677
-0.013545
-0.0144151
-0.0151249
-0.0157011
-0.0161759
-0.0165594
-0.0168786
-0.0171397
-0.0173543
-0.0175253
-0.0176689
-0.0177811
-0.017872
-0.0179381
-0.0179924
-0.0180273
-0.0180521
-0.018062
-0.0180671
-0.0180612
-0.0180514
-0.018036
-0.0180203
-0.0179998
-0.0179826
-0.0179613
-0.0179412
-0.0179183
-0.0178951
-0.0178664
-0.0178382
-0.0178028
-0.0177645
-0.017716
-0.017661
-0.0175908
-0.0175052
-0.0173983
-0.0172668
-0.0170995
-0.0168893
-0.0166179
-0.0162732
-0.0158246
-0.0152504
-0.0145161
-0.0135883
-0.0124275
-0.010994
-0.00925589
-0.00718412
-0.00476365
-0.00198123
0.00122768
0.005064
0.0101161
0.0173556
0.0281418
0.0396984
0.0375331
-1.08535
-2.52033
-3.27807
-3.57008
-3.56898
-3.38928
-3.10872
-2.77981
-2.43876
-2.10824
-1.80156
-1.52527
-1.28166
-1.07022
-0.888933
-0.734956
-0.60518
-0.496463
-0.405847
-0.330626
-0.26839
-0.217035
-0.17476
-0.140027
-0.111541
-0.0882044
-0.0691107
-0.0534967
-0.0407387
-0.0303136
-0.0218088
-0.0148674
-0.00920568
-0.00458297
-0.0008097
0.00227899
0.00480398
0.00687321
0.00856746
0.0099619
0.0111013
0.0120411
0.0128108
0.0134439
0.0139572
0.0143816
0.014724
0.0150037
0.0152309
0.0154223
0.0155758
0.0157061
0.0158139
0.0159113
0.0159919
0.0160669
0.0161324
0.0161968
0.0162522
0.0163071
0.0163566
0.0164044
0.0164457
0.0164861
0.0165187
0.0165506
0.0165769
0.0166016
0.0166211
0.016641
0.0166535
0.0166652
0.0166691
0.01667
0.0166595
0.0166407
0.016606
0.0165522
0.0164684
0.0163495
0.0161802
0.0159526
0.0156421
0.0152366
0.014705
0.0140192
0.0131405
0.0120298
0.010648
0.00895585
0.00692876
0.00455174
0.00180954
-0.00135857
-0.00515549
-0.0101631
-0.0173642
-0.0281165
-0.039652
-0.0374992
-3.25502
-7.55253
-9.81848
-10.6911
-10.6871
-10.1487
-9.30828
-8.32315
-7.30166
-6.31162
-5.39292
-4.56524
-3.83537
-3.20189
-2.65873
-2.19742
-1.80862
-1.48293
-1.21148
-0.986167
-0.799783
-0.64603
-0.519497
-0.415567
-0.330346
-0.260555
-0.203463
-0.156795
-0.118675
-0.0875478
-0.0621493
-0.0414266
-0.0245249
-0.0107341
0.000516958
0.0097047
0.0172057
0.0233347
0.0283412
0.0324398
0.0357879
0.0385307
0.0407743
0.0426121
0.04411
0.045339
0.0463404
0.0471591
0.0478264
0.0483784
0.0488278
0.0492001
0.0495058
0.0497657
0.0499806
0.0501651
0.0503204
0.0504585
0.050574
0.0506777
0.0507663
0.0508461
0.0509127
0.0509728
0.0510205
0.0510627
0.0510949
0.0511214
0.0511372
0.0511482
0.051145
0.0511332
0.051103
0.0510564
0.0509807
0.0508732
0.0507188
0.0505045
0.0502062
0.049802
0.0492546
0.0485294
0.0475662
0.0463092
0.044675
0.0425734
0.0398933
0.0365175
0.0323278
0.027215
0.0211007
0.0139414
0.00569776
-0.00380654
-0.0151578
-0.0300722
-0.0514434
-0.0833296
-0.117604
-0.11144
-5.42209
-12.5599
-16.3123
-17.7549
-17.7458
-16.8503
-15.4539
-13.8175
-12.121
-10.4769
-8.95143
-7.57719
-6.36539
-5.31365
-4.41188
-3.64603
-3.00055
-2.45987
-2.00924
-1.63521
-1.32582
-1.07061
-0.860597
-0.688113
-0.546685
-0.430874
-0.336143
-0.258714
-0.195475
-0.143843
-0.101715
-0.0673453
-0.0393144
-0.0164467
0.00220699
0.0174317
0.0298574
0.0400039
0.0482876
0.055061
0.0605938
0.0651199
0.0688206
0.0718495
0.0743207
0.0763447
0.0779972
0.0793488
0.0804511
0.081359
0.0821006
0.082712
0.0832131
0.0836333
0.0839806
0.0842731
0.0845169
0.0847274
0.0849019
0.0850536
0.0851805
0.0852914
0.0853828
0.085462
0.0855243
0.0855766
0.0856144
0.0856423
0.0856544
0.0856565
0.0856378
0.0856027
0.0855389
0.0854452
0.085305
0.0851098
0.0848367
0.0844634
0.0839529
0.0832662
0.0823442
0.081126
0.0795164
0.077416
0.0746894
0.0711846
0.066719
0.0610976
0.0541236
0.0456187
0.0354521
0.0235565
0.00988024
-0.00583924
-0.024512
-0.0488799
-0.0836195
-0.135436
-0.191391
-0.182116
-7.58484
-17.5252
-22.7279
-24.7234
-24.7054
-23.4558
-21.5098
-19.2303
-16.8678
-14.5788
-12.4554
-10.5426
-8.85607
-7.39237
-6.13741
-5.07164
-4.1734
-3.421
-2.79393
-2.27347
-1.84296
-1.48787
-1.19566
-0.955691
-0.758935
-0.597826
-0.466048
-0.358348
-0.270389
-0.198585
-0.139998
-0.0922046
-0.0532278
-0.0214346
0.00449723
0.0256562
0.0429216
0.0570155
0.0685186
0.0779186
0.0855964
0.0918731
0.0970034
0.101201
0.104627
0.10743
0.109721
0.111595
0.113123
0.11438
0.115407
0.116253
0.116945
0.117522
0.117998
0.118397
0.118727
0.119007
0.119239
0.119438
0.119602
0.119743
0.119858
0.119956
0.120032
0.120094
0.120137
0.120166
0.120174
0.120167
0.120133
0.120075
0.119978
0.119838
0.119635
0.119353
0.118964
0.118434
0.117714
0.11675
0.115459
0.113756
0.11151
0.10858
0.104778
0.0998907
0.0936661
0.0858317
0.0761128
0.064263
0.0501023
0.033546
0.0145498
-0.00718852
-0.0328061
-0.0658929
-0.112696
-0.18247
-0.258343
-0.24739
-9.74159
-22.4298
-29.0326
-31.5579
-31.5265
-29.9271
-27.4406
-24.5295
-21.5137
-18.5926
-15.8833
-13.4432
-11.292
-9.42508
-7.82449
-6.46524
-5.31968
-4.36014
-3.56045
-2.89673
-2.34774
-1.89494
-1.52235
-1.21637
-0.965503
-0.7601
-0.592103
-0.45481
-0.34269
-0.251171
-0.176503
-0.115596
-0.065928
-0.0254193
0.00761773
0.0345685
0.0565557
0.0744999
0.0891424
0.101103
0.11087
0.118852
0.125374
0.130709
0.135064
0.138625
0.141536
0.143917
0.14586
0.147455
0.14876
0.149833
0.150711
0.151439
0.15204
0.152541
0.152954
0.153302
0.153589
0.153833
0.154032
0.154202
0.15434
0.154455
0.154544
0.154615
0.154663
0.154693
0.154697
0.154682
0.154633
0.154552
0.154423
0.154238
0.153973
0.153607
0.153103
0.15242
0.151496
0.15026
0.14861
0.146432
0.143565
0.139823
0.134968
0.128729
0.120782
0.110781
0.0983717
0.0832431
0.0651689
0.0440561
0.019893
-0.00760048
-0.0396592
-0.08048
-0.137586
-0.222624
-0.315951
-0.305187
-11.8906
-27.2534
-35.1925
-38.2199
-38.1701
-36.2269
-33.2114
-29.6835
-26.0305
-22.4937
-19.2142
-16.2612
-13.658
-11.3991
-9.46252
-7.81801
-6.43208
-5.27124
-4.3038
-3.50087
-2.83677
-2.28903
-1.83835
-1.46825
-1.16484
-0.916424
-0.713259
-0.54724
-0.41167
-0.30102
-0.210751
-0.137125
-0.0770902
-0.0281332
0.0117892
0.0443507
0.0709103
0.0925816
0.110262
0.124698
0.136486
0.146116
0.153982
0.160414
0.165665
0.169958
0.173466
0.176336
0.178679
0.180599
0.18217
0.183461
0.184518
0.185391
0.186112
0.18671
0.187203
0.187616
0.187955
0.188241
0.188475
0.188671
0.188831
0.188962
0.189064
0.189142
0.189195
0.189225
0.189225
0.189201
0.189138
0.189035
0.188875
0.188646
0.18832
0.187872
0.187259
0.186427
0.185305
0.183805
0.181806
0.179167
0.175697
0.171166
0.16529
0.157736
0.148115
0.136004
0.120975
0.102652
0.0807674
0.055229
0.0260878
-0.00684013
-0.0447317
-0.0920932
-0.157349
-0.254309
-0.361939
-0.353521
-14.0299
-31.9729
-41.1721
-44.6702
-44.5976
-42.3182
-38.7881
-34.6613
-30.391
-26.2582
-22.4275
-18.979
-15.9394
-13.302
-11.0412
-9.12137
-7.50349
-6.1484
-5.01912
-4.0819
-3.30674
-2.66744
-2.14145
-1.70953
-1.35545
-1.06557
-0.828511
-0.634811
-0.476649
-0.347574
-0.242284
-0.156416
-0.0864056
-0.0293221
0.0172208
0.055175
0.0861273
0.111377
0.131974
0.148785
0.162509
0.173718
0.182871
0.190353
0.196462
0.201454
0.205532
0.208869
0.211593
0.213823
0.215648
0.217147
0.218373
0.219384
0.220219
0.220909
0.221477
0.221951
0.222339
0.222665
0.22293
0.223152
0.223331
0.223478
0.223591
0.223677
0.223733
0.223762
0.22376
0.223726
0.22365
0.223526
0.223336
0.223064
0.222681
0.222154
0.221433
0.220458
0.219146
0.217392
0.215057
0.211974
0.207922
0.202632
0.195771
0.186948
0.17571
0.161559
0.143997
0.122583
0.0970102
0.067202
0.0333022
-0.00469501
-0.0477338
-0.100286
-0.17123
-0.276217
-0.394337
-0.390527
-16.1574
-36.5622
-46.9341
-50.8698
-50.771
-48.1648
-44.1372
-39.4329
-34.5684
-29.8631
-25.5035
-21.5797
-18.1218
-15.1219
-12.5505
-10.367
-8.52704
-6.98597
-5.70174
-4.63596
-3.75451
-3.02758
-2.42952
-1.93845
-1.5359
-1.20637
-0.936899
-0.716737
-0.536985
-0.390307
-0.27067
-0.173114
-0.093584
-0.0287482
0.0241075
0.0672015
0.102338
0.130996
0.154366
0.173436
0.189001
0.201709
0.212083
0.22056
0.227482
0.233137
0.237754
0.241532
0.244616
0.247139
0.249203
0.250897
0.252283
0.253425
0.254365
0.255141
0.25578
0.25631
0.256744
0.257107
0.257402
0.257646
0.257843
0.258004
0.258126
0.258219
0.258278
0.258308
0.258301
0.258259
0.258169
0.258025
0.257806
0.257495
0.257056
0.256453
0.255631
0.254519
0.253024
0.251028
0.248372
0.244865
0.240257
0.234241
0.226436
0.216399
0.20361
0.187504
0.167509
0.143122
0.114007
0.0801072
0.0416935
-0.000977501
-0.048431
-0.10473
-0.178691
-0.287373
-0.411551
-0.414504
-18.27
-40.9905
-52.4393
-56.7798
-56.6531
-53.7318
-49.2264
-43.969
-38.537
-33.286
-28.4228
-24.0471
-20.1917
-16.8474
-13.9809
-11.547
-9.49615
-7.77851
-6.34718
-5.15938
-4.17705
-3.36697
-2.70053
-2.15335
-1.70484
-1.3377
-1.03752
-0.792278
-0.592074
-0.428725
-0.295507
-0.186891
-0.0983568
-0.0261919
0.0326286
0.0805768
0.119663
0.151534
0.17752
0.198718
0.216013
0.230132
0.241654
0.251066
0.25875
0.265025
0.270148
0.274338
0.277759
0.280556
0.282843
0.284719
0.286254
0.287516
0.288554
0.28941
0.290114
0.290696
0.291172
0.291568
0.291889
0.292155
0.292368
0.292541
0.292673
0.29277
0.292833
0.292861
0.292851
0.292801
0.292698
0.292535
0.292289
0.291939
0.291448
0.290773
0.289855
0.288614
0.286946
0.28472
0.28176
0.277851
0.272716
0.266011
0.257312
0.246121
0.231859
0.213893
0.191579
0.164358
0.131862
0.0940711
0.0514077
0.0044743
-0.0466478
-0.105219
-0.17943
-0.287193
-0.412451
-0.423958
-20.3629
-45.2217
-57.6467
-62.3616
-62.2078
-58.9851
-54.0243
-48.2415
-42.272
-36.5054
-31.1672
-26.3656
-22.136
-18.4674
-15.3233
-12.6539
-10.4046
-8.52087
-6.95122
-5.64868
-4.57152
-3.68327
-2.95257
-2.35268
-1.86099
-1.45855
-1.12952
-0.860748
-0.641355
-0.462372
-0.316424
-0.197447
-0.100479
-0.0214546
0.0429456
0.0954317
0.138207
0.173079
0.201505
0.224686
0.243594
0.259025
0.271614
0.281893
0.290285
0.297136
0.302727
0.307298
0.311031
0.314081
0.316574
0.318617
0.320288
0.321661
0.322789
0.323718
0.324481
0.32511
0.325624
0.326049
0.326395
0.326679
0.326907
0.327091
0.32723
0.327332
0.327397
0.327424
0.32741
0.327352
0.327238
0.327056
0.326784
0.326399
0.325859
0.325117
0.324108
0.322746
0.320915
0.318474
0.315229
0.310943
0.305313
0.297962
0.288423
0.276147
0.260498
0.240777
0.216274
0.186372
0.150679
0.109214
0.0625793
0.011797
-0.0422673
-0.10168
-0.173402
-0.27552
-0.396454
-0.417665
-22.4281
-49.2128
-62.5143
-67.5779
-67.4003
-63.892
-58.5008
-52.2234
-45.7499
-39.501
-33.7193
-28.5207
-23.9422
-19.9716
-16.569
-13.6804
-11.2464
-9.20821
-7.50987
-6.1006
-4.93524
-3.97432
-3.18388
-2.53499
-2.00319
-1.56794
-1.21213
-0.921515
-0.684319
-0.490837
-0.333087
-0.204509
-0.0997328
-0.0143592
0.0552013
0.111882
0.158065
0.195705
0.226381
0.25139
0.271782
0.288419
0.30199
0.313065
0.322104
0.329483
0.335503
0.340423
0.344439
0.34772
0.3504
0.352596
0.35439
0.355864
0.357072
0.358067
0.358883
0.359554
0.360102
0.360553
0.36092
0.361221
0.361461
0.361653
0.361799
0.361905
0.361971
0.361998
0.36198
0.361915
0.361789
0.361591
0.361295
0.360876
0.36029
0.359486
0.358393
0.356918
0.354938
0.352296
0.348787
0.344152
0.338063
0.330111
0.319792
0.306507
0.289565
0.268206
0.241657
0.209246
0.170555
0.125651
0.0753341
0.0211053
-0.0352267
-0.0941612
-0.16082
-0.252665
-0.363612
-0.39475
-24.4515
-52.9129
-66.9995
-72.3925
-72.1976
-68.4213
-62.6274
-55.8891
-48.9483
-42.2536
-36.0628
-30.4983
-25.5988
-21.3504
-17.7101