/*--------------------------------*- C++ -*----------------------------------*\
  =========                 |
  \\      /  F ield         | OpenFOAM: The Open Source CFD Toolbox
   \\    /   O peration     | Website:  https://openfoam.org
    \\  /    A nd           | Version:  7
     \\/     M anipulation  |
\*---------------------------------------------------------------------------*/
FoamFile
{
    version     2.0;
    format      ascii;
    class       surfaceScalarField;
    location    "3.5";
    object      phi;
}
// * * * * * * * * * * * * * * * * * * * * * * * * * * * * * * * * * * * * * //

dimensions      [0 3 -1 0 0 0 0];

internalField   nonuniform List<scalar> 
7860
(
0.00283432
0.00216568
0.00262119
0.000213131
0.00260884
1.23556e-05
0.00260634
2.495e-06
0.00260906
-2.72168e-06
0.00260779
1.26757e-06
0.0026067
1.097e-06
0.00260513
1.56542e-06
0.00260392
1.21646e-06
0.00260284
1.08004e-06
0.00260197
8.61193e-07
0.00260125
7.21187e-07
0.00260066
5.91125e-07
0.00260017
4.94079e-07
0.00259976
4.11649e-07
0.00259941
3.46571e-07
0.00259912
2.92825e-07
0.00259887
2.48944e-07
0.00259866
2.12488e-07
0.00259847
1.81958e-07
0.00259832
1.55852e-07
0.00259818
1.33911e-07
0.00259807
1.14987e-07
0.00259797
9.8698e-08
0.00259789
8.45745e-08
0.00259781
7.26776e-08
0.00259775
6.21878e-08
0.0025977
5.32232e-08
0.00259765
4.53974e-08
0.00259761
3.8813e-08
0.00259758
3.28748e-08
0.00259755
2.7993e-08
0.00259753
2.3693e-08
0.00259751
2.0123e-08
0.00259749
1.6914e-08
0.00259748
1.4378e-08
0.00259746
1.20076e-08
0.00259745
1.01738e-08
0.00259745
8.45453e-09
0.00259744
7.19825e-09
0.00259743
5.90415e-09
0.00259743
5.03191e-09
0.00259742
4.14158e-09
0.00259742
3.53587e-09
0.00259742
2.84705e-09
0.00259741
2.47446e-09
0.00259741
1.97048e-09
0.00259741
1.71969e-09
0.00259741
1.32726e-09
0.00259741
1.2363e-09
0.00259741
9.0846e-10
0.00259741
8.35671e-10
0.00259741
6.14814e-10
0.0025974
6.22514e-10
0.0025974
4.27704e-10
0.0025974
4.52873e-10
0.0025974
2.93994e-10
0.0025974
3.5738e-10
0.0025974
1.87816e-10
0.0025974
2.50706e-10
0.0025974
8.5591e-11
0.0025974
1.63244e-10
0.0025974
2.87688e-11
0.0025974
9.96037e-11
0.0025974
-1.62849e-11
0.0025974
9.36266e-11
0.0025974
-1.08469e-11
0.0025974
8.73882e-11
0.0025974
-1.21914e-11
0.0025974
1.06282e-10
0.0025974
-3.8739e-12
0.0025974
8.95998e-11
0.0025974
1.61893e-11
0.0025974
1.20287e-10
0.0025974
5.00496e-11
0.0025974
1.62753e-10
0.0025974
1.4849e-10
0.0025974
2.94494e-10
0.0025974
2.96458e-10
0.0025974
5.15951e-10
0.0025974
6.20742e-10
0.0025974
9.36431e-10
0.0025974
1.21888e-09
0.0025974
1.77903e-09
0.00259739
2.46545e-09
0.00259739
3.54812e-09
0.00259739
4.98051e-09
0.00259738
7.13181e-09
0.00259737
1.00578e-08
0.00259735
1.41499e-08
0.00259733
1.95576e-08
0.00259731
2.61964e-08
0.00259728
3.35447e-08
0.00259724
3.75551e-08
0.0025972
3.34487e-08
0.00259718
2.27169e-08
0.00259708
1.01584e-07
0.00259638
6.95979e-07
0.00259378
2.60237e-06
-1.19039e-06
0.00456761
0.00259807
0.00437532
0.000405417
0.00434651
4.11631e-05
0.00434276
6.25232e-06
0.00434577
-5.73569e-06
0.00434425
2.79117e-06
0.00434263
2.71742e-06
0.00434043
3.76223e-06
0.00433865
2.99633e-06
0.00433708
2.64734e-06
0.00433582
2.12533e-06
0.00433476
1.77757e-06
0.00433389
1.45982e-06
0.00433317
1.22023e-06
0.00433256
1.01714e-06
0.00433205
8.5682e-07
0.00433162
7.24692e-07
0.00433125
6.16854e-07
0.00433094
5.27435e-07
0.00433067
4.52605e-07
0.00433043
3.88559e-07
0.00433023
3.34619e-07
0.00433006
2.88202e-07
0.00432991
2.48141e-07
0.00432978
2.13348e-07
0.00432967
1.83963e-07
0.00432957
1.58102e-07
0.00432949
1.35889e-07
0.00432942
1.16413e-07
0.00432936
1.00008e-07
0.00432931
8.52167e-08
0.00432926
7.28867e-08
0.00432922
6.20821e-08
0.00432919
5.30263e-08
0.00432916
4.48572e-08
0.00432914
3.83366e-08
0.00432912
3.22551e-08
0.0043291
2.74518e-08
0.00432908
2.30057e-08
0.00432907
1.96713e-08
0.00432906
1.63163e-08
0.00432905
1.39276e-08
0.00432904
1.15962e-08
0.00432904
9.95977e-09
0.00432903
8.11854e-09
0.00432903
7.055e-09
0.00432902
5.71911e-09
0.00432902
4.97102e-09
0.00432902
3.92992e-09
0.00432902
3.59825e-09
0.00432901
2.77563e-09
0.00432901
2.4891e-09
0.00432901
1.90018e-09
0.00432901
1.89472e-09
0.00432901
1.415e-09
0.00432901
1.40734e-09
0.00432901
1.02358e-09
0.00432901
1.12571e-09
0.00432901
7.01029e-10
0.004329
7.88977e-10
0.004329
3.54308e-10
0.004329
4.85002e-10
0.004329
1.38237e-10
0.004329
2.62839e-10
0.004329
-1.08422e-11
0.004329
2.19096e-10
0.004329
4.624e-12
0.004329
2.09673e-10
0.004329
-7.09383e-12
0.004329
2.72535e-10
0.004329
2.3697e-11
0.004329
2.23337e-10
0.004329
7.43251e-11
0.004329
3.15847e-10
0.004329
1.79983e-10
0.004329
4.30388e-10
0.004329
4.33268e-10
0.004329
7.96206e-10
0.004329
8.19528e-10
0.004329
1.35236e-09
0.004329
1.63717e-09
0.004329
2.41341e-09
0.004329
3.14939e-09
0.00432899
4.51654e-09
0.00432899
6.27009e-09
0.00432899
8.97191e-09
0.00432898
1.2573e-08
0.00432897
1.79461e-08
0.00432895
2.52838e-08
0.00432893
3.55284e-08
0.0043289
4.91598e-08
0.00432886
6.60868e-08
0.00432881
8.58731e-08
0.00432875
9.99246e-08
0.00432868
1.04733e-07
0.00432859
1.11399e-07
0.00432827
4.17291e-07
0.00432694
2.0281e-06
0.00432236
7.1821e-06
7.90966e-06
0.00507199
0.00252608
0.00495541
0.000521993
0.00492274
7.384e-05
0.00492048
8.50733e-06
0.00492232
-7.57177e-06
0.00492117
3.93709e-06
0.00491951
4.38071e-06
0.00491745
5.82459e-06
0.0049157
4.74305e-06
0.00491418
4.16379e-06
0.00491295
3.36196e-06
0.00491192
2.80688e-06
0.00491107
2.30802e-06
0.00491036
1.92725e-06
0.00490977
1.60812e-06
0.00490927
1.35487e-06
0.00490885
1.14685e-06
0.00490849
9.77205e-07
0.00490818
8.3676e-07
0.00490791
7.19315e-07
0.00490768
6.18837e-07
0.00490748
5.3402e-07
0.00490731
4.61119e-07
0.00490716
3.98152e-07
0.00490703
3.43393e-07
0.00490692
2.96948e-07
0.00490682
2.56176e-07
0.00490673
2.21045e-07
0.00490666
1.90078e-07
0.0049066
1.63919e-07
0.00490654
1.40406e-07
0.00490649
1.20581e-07
0.00490645
1.0321e-07
0.00490642
8.85769e-08
0.00490639
7.53535e-08
0.00490636
6.46707e-08
0.00490634
5.47472e-08
0.00490632
4.67732e-08
0.0049063
3.94536e-08
0.00490629
3.38371e-08
0.00490627
2.83003e-08
0.00490626
2.42158e-08
0.00490625
2.03132e-08
0.00490625
1.75238e-08
0.00490624
1.44377e-08
0.00490624
1.25452e-08
0.00490623
1.02952e-08
0.00490623
8.9401e-09
0.00490622
7.19196e-09
0.00490622
6.50164e-09
0.00490622
5.17691e-09
0.00490622
4.59052e-09
0.00490621
3.58409e-09
0.00490621
3.5253e-09
0.00490621
2.78645e-09
0.00490621
2.68328e-09
0.00490621
2.07265e-09
0.00490621
2.15794e-09
0.00490621
1.46889e-09
0.00490621
1.50648e-09
0.0049062
7.74779e-10
0.0049062
8.77803e-10
0.0049062
3.04365e-10
0.0049062
4.2522e-10
0.0049062
7.07835e-12
0.0049062
3.07957e-10
0.0049062
2.75842e-11
0.0049062
3.07281e-10
0.0049062
-1.60416e-12
0.0049062
4.13659e-10
0.0049062
6.50593e-11
0.0049062
3.30436e-10
0.0049062
1.37636e-10
0.0049062
5.02842e-10
0.0049062
3.41187e-10
0.0049062
7.10788e-10
0.0049062
7.62438e-10
0.0049062
1.34042e-09
0.0049062
1.41561e-09
0.0049062
2.23478e-09
0.0049062
2.72762e-09
0.0049062
3.94784e-09
0.0049062
5.17119e-09
0.00490619
7.32553e-09
0.00490619
1.01713e-08
0.00490619
1.44968e-08
0.00490618
2.02854e-08
0.00490617
2.88627e-08
0.00490615
4.0629e-08
0.00490613
5.70243e-08
0.0049061
7.90275e-08
0.00490606
1.06674e-07
0.00490601
1.40768e-07
0.00490594
1.6971e-07
0.00490584
2.00552e-07
0.00490569
2.56826e-07
0.00490522
8.91376e-07
0.0049036
3.64794e-06
0.00489776
1.30249e-05
2.27384e-05
0.00520988
0.0023162
0.00513955
0.000592321
0.00511247
0.000100919
0.00511134
9.64225e-06
0.00511243
-8.65682e-06
0.00511159
4.76743e-06
0.00511013
5.84207e-06
0.0051084
7.55926e-06
0.00510689
6.25095e-06
0.00510559
5.46507e-06
0.00510452
4.43059e-06
0.00510363
3.69466e-06
0.0051029
3.04038e-06
0.00510229
2.53848e-06
0.00510178
2.11829e-06
0.00510135
1.78534e-06
0.00510098
1.51238e-06
0.00510067
1.28999e-06
0.0051004
1.1061e-06
0.00510017
9.52396e-07
0.00509997
8.21015e-07
0.00509979
7.09896e-07
0.00509964
6.14392e-07
0.0050995
5.31924e-07
0.00509939
4.60136e-07
0.00509928
3.98952e-07
0.00509919
3.45326e-07
0.00509912
2.99108e-07
0.00509905
2.58081e-07
0.00509899
2.23283e-07
0.00509894
1.9214e-07
0.00509889
1.65661e-07
0.00509885
1.4237e-07
0.00509882
1.227e-07
0.00509879
1.04906e-07
0.00509876
9.03675e-08
0.00509874
7.68936e-08
0.00509872
6.5926e-08
0.0050987
5.58927e-08
0.00509869
4.80578e-08
0.00509868
4.04442e-08
0.00509867
3.47116e-08
0.00509866
2.92647e-08
0.00509865
2.53358e-08
0.00509864
2.10588e-08
0.00509864
1.83135e-08
0.00509863
1.51561e-08
0.00509863
1.31732e-08
0.00509863
1.0734e-08
0.00509862
9.61886e-09
0.00509862
7.82017e-09
0.00509862
6.92004e-09
0.00509861
5.47887e-09
0.00509861
5.33245e-09
0.00509861
4.38534e-09
0.00509861
4.16589e-09
0.00509861
3.32878e-09
0.00509861
3.35753e-09
0.00509861
2.40673e-09
0.00509861
2.33479e-09
0.0050986
1.2979e-09
0.0050986
1.30121e-09
0.0050986
4.9254e-10
0.0050986
5.64583e-10
0.0050986
1.49017e-11
0.0050986
3.46428e-10
0.0050986
3.02725e-11
0.0050986
3.69208e-10
0.0050986
-1.30038e-11
0.0050986
5.04484e-10
0.0050986
9.98617e-11
0.0050986
4.01734e-10
0.0050986
1.83771e-10
0.0050986
6.64404e-10
0.0050986
5.06991e-10
0.0050986
9.85093e-10
0.0050986
1.09823e-09
0.0050986
1.87071e-09
0.0050986
2.01626e-09
0.0050986
3.06876e-09
0.0050986
3.76052e-09
0.0050986
5.36731e-09
0.0050986
7.04439e-09
0.0050986
9.89709e-09
0.00509859
1.37189e-08
0.00509859
1.94971e-08
0.00509858
2.72352e-08
0.00509857
3.86359e-08
0.00509856
5.43398e-08
0.00509854
7.61997e-08
0.00509851
1.0583e-07
0.00509847
1.43562e-07
0.00509842
1.92569e-07
0.00509835
2.40395e-07
0.00509824
3.11461e-07
0.00509806
4.41559e-07
0.00509749
1.45893e-06
0.00509584
5.30108e-06
0.00508957
1.92887e-05
3.7814e-05
0.00523327
0.00208293
0.00519416
0.000631432
0.0051735
0.000121576
0.00517317
9.96834e-06
0.00517379
-9.27438e-06
0.00517327
5.29299e-06
0.00517208
7.02423e-06
0.00517072
8.92447e-06
0.00516951
7.46093e-06
0.00516847
6.50782e-06
0.00516761
5.29165e-06
0.00516689
4.4105e-06
0.0051663
3.63163e-06
0.00516581
3.02904e-06
0.0051654
2.5302e-06
0.00516505
2.13375e-06
0.00516475
1.80895e-06
0.0051645
1.54457e-06
0.00516428
1.32614e-06
0.00516408
1.14361e-06
0.00516392
9.87733e-07
0.00516377
8.55702e-07
0.00516364
7.42125e-07
0.00516353
6.44126e-07
0.00516343
5.58771e-07
0.00516335
4.85653e-07
0.00516327
4.21571e-07
0.0051632
3.66478e-07
0.00516314
3.17178e-07
0.00516309
2.75173e-07
0.00516305
2.37754e-07
0.00516301
2.05761e-07
0.00516297
1.77439e-07
0.00516294
1.53483e-07
0.00516291
1.31804e-07
0.00516289
1.13914e-07
0.00516287
9.73414e-08
0.00516285
8.37221e-08
0.00516284
7.12636e-08
0.00516282
6.1404e-08
0.00516281
5.19189e-08
0.0051628
4.46967e-08
0.00516279
3.78202e-08
0.00516278
3.28315e-08
0.00516278
2.74872e-08
0.00516277
2.39331e-08
0.00516277
1.99284e-08
0.00516276
1.73466e-08
0.00516276
1.42753e-08
0.00516276
1.27146e-08
0.00516275
1.04808e-08
0.00516275
9.30331e-09
0.00516275
7.43911e-09
0.00516275
7.1787e-09
0.00516274
6.07409e-09
0.00516274
5.75229e-09
0.00516274
4.6928e-09
0.00516274
4.63939e-09
0.00516274
3.4383e-09
0.00516274
3.21448e-09
0.00516274
1.87769e-09
0.00516274
1.72966e-09
0.00516274
6.77122e-10
0.00516274
6.71615e-10
0.00516274
-3.53195e-12
0.00516274
3.35647e-10
0.00516274
-4.62099e-12
0.00516274
3.9356e-10
0.00516274
-4.7129e-11
0.00516274
5.41014e-10
0.00516274
1.16517e-10
0.00516274
4.47347e-10
0.00516274
2.0927e-10
0.00516274
8.05651e-10
0.00516274
6.72763e-10
0.00516274
1.25625e-09
0.00516274
1.43091e-09
0.00516274
2.36995e-09
0.00516274
2.59079e-09
0.00516274
3.82245e-09
0.00516273
4.68226e-09
0.00516273
6.61037e-09
0.00516273
8.67725e-09
0.00516273
1.21251e-08
0.00516273
1.67563e-08
0.00516272
2.37647e-08
0.00516272
3.31195e-08
0.00516271
4.68557e-08
0.0051627
6.58417e-08
0.00516268
9.22834e-08
0.00516266
1.28506e-07
0.00516263
1.75327e-07
0.00516258
2.39084e-07
0.00516251
3.08518e-07
0.00516239
4.29315e-07
0.00516219
6.48458e-07
0.0051616
2.04296e-06
0.00516004
6.86774e-06
0.00515415
2.51725e-05
5.09449e-05
0.00522258
0.00186036
0.00520653
0.00064748
0.00519181
0.000136299
0.00519202
9.74988e-06
0.00519236
-9.61102e-06
0.00519211
5.54982e-06
0.00519122
7.90841e-06
0.00519023
9.91911e-06
0.00518932
8.36678e-06
0.00518854
7.2871e-06
0.00518789
5.94056e-06
0.00518735
4.95053e-06
0.0051869
4.07872e-06
0.00518653
3.40061e-06
0.00518622
2.84251e-06
0.00518596
2.39879e-06
0.00518573
2.03533e-06
0.00518553
1.73972e-06
0.00518536
1.49563e-06
0.00518522
1.29162e-06
0.00518509
1.11756e-06
0.00518497
9.69992e-07
0.00518487
8.42847e-07
0.00518478
7.33248e-07
0.0051847
6.37758e-07
0.00518463
5.55579e-07
0.00518457
4.83446e-07
0.00518452
4.21335e-07
0.00518447
3.65797e-07
0.00518442
3.18235e-07
0.00518439
2.75915e-07
0.00518435
2.39633e-07
0.00518432
2.07264e-07
0.0051843
1.79842e-07
0.00518427
1.55032e-07
0.00518425
1.34391e-07
0.00518423
1.15241e-07
0.00518422
9.93958e-08
0.0051842
8.48693e-08
0.00518419
7.32531e-08
0.00518418
6.21613e-08
0.00518417
5.36669e-08
0.00518417
4.55414e-08
0.00518416
3.96124e-08
0.00518415
3.33635e-08
0.00518415
2.90786e-08
0.00518414
2.43243e-08
0.00518414
2.12078e-08
0.00518414
1.75948e-08
0.00518413
1.56082e-08
0.00518413
1.29818e-08
0.00518413
1.1594e-08
0.00518413
9.34673e-09
0.00518412
8.95764e-09
0.00518412
7.73548e-09
0.00518412
7.34813e-09
0.00518412
6.07799e-09
0.00518412
5.92841e-09
0.00518412
4.49684e-09
0.00518412
4.09555e-09
0.00518411
2.47184e-09
0.00518411
2.14433e-09
0.00518411
8.38806e-10
0.00518411
7.41095e-10
0.00518411
-6.10494e-11
0.00518411
2.779e-10
0.00518411
-9.01714e-11
0.00518411
3.75198e-10
0.00518411
-1.09557e-10
0.00518411
5.24199e-10
0.00518412
1.02754e-10
0.00518412
4.75828e-10
0.00518412
2.1526e-10
0.00518412
9.31898e-10
0.00518412
8.37602e-10
0.00518411
1.52773e-09
0.00518411
1.75432e-09
0.00518411
2.8298e-09
0.00518411
3.11772e-09
0.00518411
4.48088e-09
0.00518411
5.46553e-09
0.00518411
7.65104e-09
0.00518411
1.00307e-08
0.00518411
1.39703e-08
0.00518411
1.92253e-08
0.0051841
2.72311e-08
0.0051841
3.78424e-08
0.00518409
5.34003e-08
0.00518408
7.49682e-08
0.00518407
1.05067e-07
0.00518405
1.4674e-07
0.00518403
2.01475e-07
0.00518399
2.79244e-07
0.00518392
3.70816e-07
0.00518381
5.46187e-07
0.0051836
8.58772e-07
0.00518303
2.61327e-06
0.00518165
8.24666e-06
0.0051766
3.02174e-05
6.15777e-05
0.00520393
0.00165642
0.00520546
0.000645956
0.00519606
0.000145694
0.00519664
9.1769e-06
0.00519679
-9.76552e-06
0.00519677
5.57567e-06
0.00519617
8.50095e-06
0.00519553
1.05652e-05
0.00519491
8.9799e-06
0.00519439
7.81401e-06
0.00519394
6.38477e-06
0.00519357
5.32118e-06
0.00519326
4.38705e-06
0.00519301
3.65762e-06
0.00519279
3.05908e-06
0.0051926
2.58334e-06
0.00519245
2.19377e-06
0.00519231
1.87715e-06
0.00519219
1.61581e-06
0.00519208
1.39727e-06
0.00519199
1.21095e-06
0.00519191
1.05293e-06
0.00519183
9.16504e-07
0.00519177
7.99011e-07
0.00519171
6.96643e-07
0.00519166
6.08178e-07
0.00519161
5.30299e-07
0.00519157
4.63272e-07
0.00519153
4.03328e-07
0.0051915
3.5173e-07
0.00519147
3.05852e-07
0.00519144
2.66507e-07
0.00519141
2.31116e-07
0.00519139
2.01075e-07
0.00519137
1.73904e-07
0.00519136
1.51164e-07
0.00519134
1.29993e-07
0.00519133
1.12399e-07
0.00519132
9.62054e-08
0.00519131
8.31525e-08
0.0051913
7.07542e-08
0.00519129
6.12464e-08
0.00519129
5.20943e-08
0.00519128
4.53791e-08
0.00519127
3.83967e-08
0.00519127
3.34819e-08
0.00519127
2.80915e-08
0.00519126
2.45583e-08
0.00519126
2.05158e-08
0.00519126
1.81536e-08
0.00519125
1.51819e-08
0.00519125
1.36649e-08
0.00519125
1.11008e-08
0.00519125
1.05834e-08
0.00519125
9.27088e-09
0.00519125
8.86607e-09
0.00519124
7.40808e-09
0.00519124
7.15846e-09
0.00519124
5.52417e-09
0.00519124
4.93691e-09
0.00519124
3.04346e-09
0.00519124
2.52895e-09
0.00519124
9.64623e-10
0.00519124
7.69072e-10
0.00519124
-1.66525e-10
0.00519124
1.73834e-10
0.00519124
-2.34458e-10
0.00519124
3.05998e-10
0.00519124
-2.05804e-10
0.00519124
4.57254e-10
0.00519124
4.8907e-11
0.00519124
4.91027e-10
0.00519124
2.06491e-10
0.00519124
1.04653e-09
0.00519124
1.00147e-09
0.00519124
1.80124e-09
0.00519124
2.06334e-09
0.00519124
3.24412e-09
0.00519124
3.58113e-09
0.00519124
5.03496e-09
0.00519124
6.09623e-09
0.00519124
8.47703e-09
0.00519124
1.10884e-08
0.00519124
1.54186e-08
0.00519123
2.11113e-08
0.00519123
2.98064e-08
0.00519123
4.14023e-08
0.00519122
5.82584e-08
0.00519122
8.17126e-08
0.00519121
1.14545e-07
0.00519119
1.60473e-07
0.00519117
2.21794e-07
0.00519114
3.12199e-07
0.00519109
4.25546e-07
0.00519098
6.55425e-07
0.00519078
1.05882e-06
0.00519026
3.13078e-06
0.00518913
9.37959e-06
0.00518513
3.42134e-05
6.96146e-05
0.00518536
0.00147106
0.00520053
0.000630793
0.00519584
0.000150376
0.00519663
8.39374e-06
0.00519664
-9.78284e-06
0.00519681
5.4132e-06
0.00519649
8.81963e-06
0.00519616
1.08918e-05
0.00519582
9.31922e-06
0.00519553
8.10523e-06
0.00519528
6.63646e-06
0.00519507
5.53243e-06
0.00519489
4.56455e-06
0.00519474
3.80615e-06
0.00519462
3.18512e-06
0.00519451
2.69165e-06
0.00519441
2.28769e-06
0.00519433
1.95954e-06
0.00519426
1.68875e-06
0.00519419
1.46214e-06
0.00519414
1.26904e-06
0.00519408
1.10532e-06
0.00519404
9.63636e-07
0.00519399
8.41702e-07
0.00519395
7.3548e-07
0.00519392
6.43374e-07
0.00519389
5.61979e-07
0.00519386
4.92007e-07
0.00519383
4.29414e-07
0.00519381
3.75268e-07
0.00519379
3.27113e-07
0.00519377
2.85892e-07
0.00519375
2.48517e-07
0.00519373
2.16708e-07
0.00519372
1.87942e-07
0.00519371
1.6378e-07
0.0051937
1.41167e-07
0.00519369
1.22328e-07
0.00519368
1.04901e-07
0.00519367
9.07679e-08
0.00519366
7.73845e-08
0.00519366
6.71488e-08
0.00519365
5.72193e-08
0.00519365
4.98962e-08
0.00519364
4.23161e-08
0.00519364
3.69601e-08
0.00519364
3.10895e-08
0.00519363
2.7238e-08
0.00519363
2.28944e-08
0.00519363
2.02299e-08
0.00519363
1.69714e-08
0.00519363
1.54072e-08
0.00519362
1.26139e-08
0.00519362
1.19857e-08
0.00519362
1.06008e-08
0.00519362
1.02271e-08
0.00519362
8.61741e-09
0.00519362
8.27135e-09
0.00519362
6.47013e-09
0.00519362
5.70464e-09
0.00519361
3.56264e-09
0.00519361
2.86778e-09
0.00519361
1.0471e-09
0.00519361
7.52266e-10
0.00519361
-3.25128e-10
0.00519361
2.21009e-11
0.00519362
-4.40787e-10
0.00519362
1.76692e-10
0.00519362
-3.4163e-10
0.00519362
3.44048e-10
0.00519362
-5.01835e-11
0.00519362
4.91818e-10
0.00519362
1.89565e-10
0.00519362
1.15133e-09
0.00519362
1.16348e-09
0.00519362
2.07583e-09
0.00519362
2.35353e-09
0.00519362
3.60667e-09
0.00519362
3.96886e-09
0.00519361
5.47804e-09
0.00519361
6.5676e-09
0.00519361
9.08096e-09
0.00519361
1.18445e-08
0.00519361
1.64589e-08
0.00519361
2.24295e-08
0.00519361
3.1543e-08
0.00519361
4.37026e-08
0.0051936
6.14754e-08
0.0051936
8.61268e-08
0.00519359
1.20779e-07
0.00519358
1.69732e-07
0.00519357
2.36158e-07
0.00519354
3.37297e-07
0.0051935
4.70565e-07
0.0051934
7.50777e-07
0.00519323
1.23549e-06
0.00519279
3.56425e-06
0.00519194
1.02338e-05
0.00518908
3.70732e-05
7.50829e-05
0.00516893
0.00130213
0.00519488
0.00060485
0.00519434
0.000150913
0.00519522
7.50905e-06
0.00519512
-9.67661e-06
0.00519542
5.1066e-06
0.00519535
8.88764e-06
0.00519532
1.09292e-05
0.00519523
9.40647e-06
0.00519516
8.17927e-06
0.00519508
6.70965e-06
0.00519502
5.59557e-06
0.00519496
4.62012e-06
0.00519492
3.85338e-06
0.00519487
3.22646e-06
0.00519484
2.72849e-06
0.0051948
2.32092e-06
0.00519477
1.98999e-06
0.00519475
1.71694e-06
0.00519472
1.48823e-06
0.0051947
1.29337e-06
0.00519467
1.12829e-06
0.00519465
9.85113e-07
0.00519463
8.61934e-07
0.00519461
7.54647e-07
0.00519459
6.61385e-07
0.00519458
5.78597e-07
0.00519456
5.07488e-07
0.00519455
4.4392e-07
0.00519453
3.88687e-07
0.00519452
3.39482e-07
0.00519451
2.97509e-07
0.0051945
2.5918e-07
0.00519449
2.26449e-07
0.00519448
1.9684e-07
0.00519447
1.71934e-07
0.00519446
1.4847e-07
0.00519446
1.28901e-07
0.00519445
1.10698e-07
0.00519445
9.58601e-08
0.00519444
8.18294e-08
0.00519444
7.11548e-08
0.00519443
6.07189e-08
0.00519443
5.29878e-08
0.00519443
4.50094e-08
0.00519443
3.938e-08
0.00519442
3.31852e-08
0.00519442
2.91394e-08
0.00519442
2.45845e-08
0.00519442
2.17477e-08
0.00519442
1.82706e-08
0.00519441
1.67334e-08
0.00519441
1.38116e-08
0.00519441
1.31072e-08
0.00519441
1.16651e-08
0.00519441
1.13633e-08
0.00519441
9.65165e-09
0.00519441
9.21782e-09
0.00519441
7.29212e-09
0.00519441
6.36941e-09
0.00519441
4.00613e-09
0.00519441
3.1448e-09
0.00519441
1.08269e-09
0.00519441
6.88714e-10
0.00519441
-5.3879e-10
0.00519441
-1.79624e-10
0.00519441
-7.08713e-10
0.00519441
-2.04028e-11
0.00519441
-5.2302e-10
0.00519441
1.88215e-10
0.00519441
-1.94416e-10
0.00519441
4.73573e-10
0.00519441
1.71469e-10
0.00519441
1.24695e-09
0.00519441
1.32161e-09
0.00519441
2.34752e-09
0.00519441
2.62162e-09
0.00519441
3.91098e-09
0.00519441
4.27108e-09
0.00519441
5.80299e-09
0.00519441
6.87666e-09
0.00519441
9.45874e-09
0.00519441
1.23002e-08
0.00519441
1.70964e-08
0.0051944
2.31339e-08
0.0051944
3.24908e-08
0.0051944
4.48884e-08
0.0051944
6.30814e-08
0.0051944
8.8273e-08
0.0051944
1.23847e-07
0.00519439
1.74573e-07
0.00519438
2.44481e-07
0.00519437
3.53923e-07
0.00519433
5.03874e-07
0.00519426
8.2673e-07
0.00519411
1.37786e-06
0.00519379
3.89165e-06
0.00519323
1.07904e-05
0.00519153
3.87742e-05
7.80776e-05
0.00515491
0.00114721
0.00518949
0.000570275
0.00519259
0.000147814
0.0051935
6.59849e-06
0.00519327
-9.44441e-06
0.00519368
4.69741e-06
0.00519383
8.73043e-06
0.00519406
1.07073e-05
0.0051942
9.26415e-06
0.00519432
8.05516e-06
0.00519441
6.61903e-06
0.00519449
5.52245e-06
0.00519454
4.56314e-06
0.00519459
3.80693e-06
0.00519463
3.18931e-06
0.00519466
2.6989e-06
0.00519468
2.2976e-06
0.0051947
1.97185e-06
0.00519471
1.70309e-06
0.00519472
1.47773e-06
0.00519473
1.2857e-06
0.00519474
1.12326e-06
0.00519474
9.82051e-07
0.00519474
8.60576e-07
0.00519474
7.5478e-07
0.00519474
6.62661e-07
0.00519474
5.80485e-07
0.00519473
5.09925e-07
0.00519473
4.46937e-07
0.00519473
3.92029e-07
0.00519472
3.42952e-07
0.00519472
3.01276e-07
0.00519472
2.6299e-07
0.00519471
2.30169e-07
0.00519471
2.00448e-07
0.0051947
1.75459e-07
0.0051947
1.51735e-07
0.0051947
1.31952e-07
0.0051947
1.1344e-07
0.00519469
9.82857e-08
0.00519469
8.39485e-08
0.00519469
7.31228e-08
0.00519469
6.2457e-08
0.00519468
5.45403e-08
0.00519468
4.63742e-08
0.00519468
4.0644e-08
0.00519468
3.4294e-08
0.00519468
3.01776e-08
0.00519468
2.55446e-08
0.00519468
2.26429e-08
0.00519468
1.90247e-08
0.00519468
1.75829e-08
0.00519467
1.46284e-08
0.00519467
1.39046e-08
0.00519467
1.24167e-08
0.00519467
1.22268e-08
0.00519467
1.04607e-08
0.00519467
9.97111e-09
0.00519467
7.95206e-09
0.00519467
6.90859e-09
0.00519467
4.35253e-09
0.00519467
3.34627e-09
0.00519467
1.06984e-09
0.00519467
5.77924e-10
0.00519467
-8.06563e-10
0.00519467
-4.33588e-10
0.00519467
-1.03479e-09
0.00519467
-2.8925e-10
0.00519467
-7.5566e-10
0.00519467
-7.14529e-12
0.00519467
-3.79191e-10
0.00519467
4.30183e-10
0.00519467
1.57909e-10
0.00519467
1.33355e-09
0.00519467
1.4733e-09
0.00519467
2.60966e-09
0.00519467
2.86571e-09
0.00519467
4.15136e-09
0.00519467
4.48226e-09
0.00519467
5.99571e-09
0.00519467
7.02292e-09
0.00519467
9.61858e-09
0.00519467
1.24618e-08
0.00519467
1.73364e-08
0.00519467
2.33122e-08
0.00519467
3.26696e-08
0.00519467
4.50009e-08
0.00519467
6.31447e-08
0.00519467
8.82411e-08
0.00519467
1.23857e-07
0.00519467
1.75097e-07
0.00519467
2.46736e-07
0.00519466
3.61594e-07
0.00519464
5.23873e-07
0.00519459
8.78895e-07
0.00519449
1.47772e-06
0.00519428
4.09829e-06
0.00519403
1.10408e-05
0.00519347
3.93344e-05
7.87395e-05
0.0051431
0.0010041
0.00518465
0.000528735
0.00519094
0.000141525
0.00519182
5.71002e-06
0.00519146
-9.07786e-06
0.00519193
4.22217e-06
0.00519229
8.374e-06
0.00519274
1.02552e-05
0.00519309
8.91479e-06
0.00519339
7.75198e-06
0.00519363
6.3796e-06
0.00519383
5.32517e-06
0.00519399
4.40327e-06
0.00519412
3.67467e-06
0.00519423
3.08008e-06
0.00519432
2.60817e-06
0.0051944
2.22204e-06
0.00519446
1.90869e-06
0.00519451
1.65015e-06
0.00519456
1.43311e-06
0.0051946
1.24808e-06
0.00519463
1.09185e-06
0.00519465
9.55802e-07
0.00519467
8.38732e-07
0.00519469
7.36757e-07
0.00519471
6.47887e-07
0.00519472
5.68192e-07
0.00519473
4.99755e-07
0.00519474
4.38778e-07
0.00519474
3.85527e-07
0.00519475
3.37704e-07
0.00519475
2.97296e-07
0.00519476
2.59998e-07
0.00519476
2.27891e-07
0.00519476
1.98759e-07
0.00519476
1.74322e-07
0.00519476
1.5092e-07
0.00519476
1.31424e-07
0.00519476
1.13068e-07
0.00519476
9.79909e-08
0.00519476
8.36825e-08
0.00519476
7.29892e-08
0.00519476
6.23647e-08
0.00519476
5.44969e-08
0.00519476
4.63508e-08
0.00519476
4.06991e-08
0.00519476
3.43612e-08
0.00519476
3.03083e-08
0.00519476
2.57323e-08
0.00519476
2.28791e-08
0.00519476
1.9208e-08
0.00519476
1.79129e-08
0.00519476
1.50241e-08
0.00519476
1.43404e-08
0.00519476
1.28304e-08
0.00519476
1.27736e-08
0.00519476
1.10129e-08
0.00519476
1.04965e-08
0.00519476
8.42519e-09
0.00519476
7.30368e-09
0.00519476
4.59745e-09
0.00519476
3.46431e-09
0.00519476
1.00873e-09
0.00519476
4.16187e-10
0.00519476
-1.1208e-09
0.00519476
-7.46558e-10
0.00519476
-1.40677e-09
0.00519476
-6.34099e-10
0.00519476
-1.04058e-09
0.00519476
-2.41157e-10
0.00519476
-5.96752e-10
0.00519476
3.57214e-10
0.00519476
1.47922e-10
0.00519476
1.41687e-09
0.00519476
1.61558e-09
0.00519476
2.8555e-09
0.00519476
3.08415e-09
0.00519476
4.32479e-09
0.00519476
4.59913e-09
0.00519476
6.06206e-09
0.00519476
7.01153e-09
0.00519476
9.55869e-09
0.00519476
1.23377e-08
0.00519476
1.71915e-08
0.00519476
2.29875e-08
0.00519476
3.21187e-08
0.00519476
4.40891e-08
0.00519476
6.17469e-08
0.00519477
8.61484e-08
0.00519477
1.20951e-07
0.00519477
1.71454e-07
0.00519478
2.42985e-07
0.00519478
3.60021e-07
0.00519477
5.29438e-07
0.00519475
9.04137e-07
0.00519469
1.52946e-06
0.00519462
4.17577e-06
0.00519467
1.09848e-05
0.00519521
3.88012e-05
7.7237e-05
0.00513321
0.000870888
0.00518039
0.000481557
0.00518947
0.000132452
0.0051903
4.87062e-06
0.00518979
-8.56881e-06
0.00519031
3.71133e-06
0.00519084
7.8439e-06
0.00519149
9.60045e-06
0.00519202
8.38067e-06
0.00519249
7.28866e-06
0.00519286
6.00642e-06
0.00519317
5.01602e-06
0.00519342
4.15039e-06
0.00519363
3.46464e-06
0.00519381
2.9054e-06
0.00519395
2.46178e-06
0.00519408
2.0988e-06
0.00519418
1.80431e-06
0.00519427
1.56129e-06
0.00519435
1.35702e-06
0.00519441
1.18275e-06
0.00519447
1.03594e-06
0.00519452
9.07937e-07
0.00519456
7.97728e-07
0.00519459
7.01684e-07
0.00519462
6.17964e-07
0.00519465
5.42476e-07
0.00519467
4.7762e-07
0.00519469
4.19958e-07
0.0051947
3.69596e-07
0.00519472
3.24092e-07
0.00519473
2.85844e-07
0.00519474
2.50406e-07
0.00519475
2.19778e-07
0.00519475
1.91902e-07
0.00519476
1.68614e-07
0.00519476
1.46092e-07
0.00519477
1.27365e-07
0.00519477
1.09612e-07
0.00519477
9.50027e-08
0.00519478
8.10488e-08
0.00519478
7.07606e-08
0.00519478
6.04396e-08
0.00519478
5.28535e-08
0.00519478
4.49325e-08
0.00519478
3.95374e-08
0.00519478
3.33737e-08
0.00519479
2.95177e-08
0.00519479
2.51282e-08
0.00519479
2.24414e-08
0.00519479
1.8813e-08
0.00519479
1.7707e-08
0.00519479
1.49724e-08
0.00519479
1.43916e-08
0.00519479
1.28913e-08
0.00519479
1.29814e-08
0.00519479
1.12818e-08
0.00519479
1.07791e-08
0.00519479
8.69277e-09
0.00519479
7.54088e-09
0.00519478
4.73634e-09
0.00519478
3.49116e-09
0.00519479
8.99286e-10
0.00519479
2.09561e-10
0.00519479
-1.47635e-09
0.00519479
-1.1141e-09
0.00519479
-1.82274e-09
0.00519479
-1.046e-09
0.00519479
-1.37921e-09
0.00519479
-5.13284e-10
0.00519479
-8.36573e-10
0.00519479
2.54206e-10
0.00519479
1.41872e-10
0.00519479
1.4967e-09
0.00519479
1.7473e-09
0.00519479
3.07405e-09
0.00519479
3.27486e-09
0.00519479
4.4295e-09
0.00519479
4.62217e-09
0.00519479
6.00222e-09
0.00519479
6.84863e-09
0.00519479
9.28982e-09
0.00519479
1.19402e-08
0.00519479
1.66775e-08
0.00519479
2.21815e-08
0.00519479
3.08822e-08
0.00519479
4.22193e-08
0.0051948
5.89828e-08
0.0051948
8.21318e-08
0.00519481
1.153e-07
0.00519481
1.63842e-07
0.00519482
2.33385e-07
0.00519483
3.49144e-07
0.00519484
5.19961e-07
0.00519485
9.00604e-07
0.00519485
1.52997e-06
0.0051949
4.12131e-06
0.00519526
1.06303e-05
0.00519681
3.72431e-05
7.37563e-05
0.00512497
0.000745916
0.00517671
0.000429817
0.0051882
0.000120966
0.00518898
4.09239e-06
0.00518832
-7.91277e-06
0.00518884
3.18886e-06
0.00518952
7.16469e-06
0.00519035
8.76956e-06
0.00519105
7.68373e-06
0.00519165
6.68386e-06
0.00519215
5.51455e-06
0.00519255
4.60733e-06
0.00519289
3.81452e-06
0.00519317
3.18507e-06
0.0051934
2.67207e-06
0.0051936
2.26539e-06
0.00519376
1.93261e-06
0.00519391
1.66269e-06
0.00519403
1.43989e-06
0.00519413
1.25236e-06
0.00519422
1.0922e-06
0.0051943
9.57633e-07
0.00519437
8.40242e-07
0.00519443
7.39105e-07
0.00519448
6.50882e-07
0.00519452
5.74005e-07
0.00519456
5.04286e-07
0.00519459
4.44349e-07
0.00519462
3.91175e-07
0.00519465
3.4482e-07
0.00519467
3.02628e-07
0.00519469
2.67352e-07
0.0051947
2.34562e-07
0.00519472
2.06125e-07
0.00519473
1.80129e-07
0.00519474
1.5854e-07
0.00519475
1.37423e-07
0.00519475
1.19914e-07
0.00519476
1.03187e-07
0.00519477
8.94214e-08
0.00519477
7.61346e-08
0.00519477
6.65074e-08
0.00519478
5.67391e-08
0.00519478
4.96558e-08
0.00519478
4.21593e-08
0.00519479
3.71917e-08
0.00519479
3.1358e-08
0.00519479
2.78226e-08
0.00519479
2.37422e-08
0.00519479
2.1336e-08
0.00519479
1.78518e-08
0.00519479
1.69711e-08
0.00519479
1.44659e-08
0.00519479
1.40489e-08
0.00519479
1.25987e-08
0.00519479
1.28441e-08
0.00519479
1.12541e-08
0.00519479
1.08116e-08
0.00519479
8.74502e-09
0.00519479
7.60932e-09
0.00519479
4.76565e-09
0.00519479
3.42595e-09
0.00519479
7.43345e-10
0.00519479
-3.9001e-11
0.00519479
-1.86254e-09
0.0051948
-1.53272e-09
0.0051948
-2.27537e-09
0.0051948
-1.51478e-09
0.0051948
-1.76956e-09
0.0051948
-8.19793e-10
0.0051948
-1.09023e-09
0.0051948
1.23433e-10
0.0051948
1.36914e-10
0.0051948
1.57523e-09
0.0051948
1.86792e-09
0.0051948
3.25659e-09
0.0051948
3.43386e-09
0.0051948
4.46685e-09
0.0051948
4.55281e-09
0.0051948
5.81801e-09
0.0051948
6.54015e-09
0.0051948
8.82687e-09
0.0051948
1.12855e-08
0.0051948
1.58147e-08
0.0051948
2.09245e-08
0.0051948
2.90101e-08
0.00519481
3.94676e-08
0.00519481
5.49605e-08
0.00519482
7.63456e-08
0.00519483
1.07108e-07
0.00519484
1.52511e-07
0.00519485
2.18205e-07
0.00519487