/*--------------------------------*- C++ -*----------------------------------*\
  =========                 |
  \\      /  F ield         | OpenFOAM: The Open Source CFD Toolbox
   \\    /   O peration     | Website:  https://openfoam.org
    \\  /    A nd           | Version:  7
     \\/     M anipulation  |
\*---------------------------------------------------------------------------*/
FoamFile
{
    version     2.0;
    format      ascii;
    class       volVectorField;
    location    "3.5";
    object      U;
}
// * * * * * * * * * * * * * * * * * * * * * * * * * * * * * * * * * * * * * //

dimensions      [0 1 -1 0 0 0 0];

internalField   nonuniform List<vector> 
4000
(
(0.53756 0.0563971 0)
(0.552164 0.00359851 0)
(0.517048 -0.00176415 0)
(0.522868 -0.00200137 0)
(0.521057 -0.00213094 0)
(0.52199 -0.00203765 0)
(0.521383 -0.00204473 0)
(0.521233 -0.00203494 0)
(0.52089 -0.00204442 0)
(0.520683 -0.00204833 0)
(0.520478 -0.0020541 0)
(0.520324 -0.00205784 0)
(0.520191 -0.00206127 0)
(0.520083 -0.0020638 0)
(0.519992 -0.00206588 0)
(0.519916 -0.00206751 0)
(0.519852 -0.00206884 0)
(0.519798 -0.00206989 0)
(0.519752 -0.00207074 0)
(0.519713 -0.00207145 0)
(0.519679 -0.00207202 0)
(0.51965 -0.00207249 0)
(0.519625 -0.00207289 0)
(0.519604 -0.00207323 0)
(0.519585 -0.00207351 0)
(0.51957 -0.00207375 0)
(0.519556 -0.00207396 0)
(0.519545 -0.00207412 0)
(0.519535 -0.00207427 0)
(0.519526 -0.00207439 0)
(0.519519 -0.0020745 0)
(0.519513 -0.00207459 0)
(0.519508 -0.00207467 0)
(0.519504 -0.00207473 0)
(0.5195 -0.00207479 0)
(0.519497 -0.00207483 0)
(0.519494 -0.00207488 0)
(0.519492 -0.00207491 0)
(0.51949 -0.00207494 0)
(0.519488 -0.00207496 0)
(0.519487 -0.00207499 0)
(0.519486 -0.002075 0)
(0.519485 -0.00207502 0)
(0.519484 -0.00207503 0)
(0.519484 -0.00207504 0)
(0.519483 -0.00207505 0)
(0.519483 -0.00207506 0)
(0.519482 -0.00207506 0)
(0.519482 -0.00207507 0)
(0.519482 -0.00207507 0)
(0.519481 -0.00207508 0)
(0.519481 -0.00207507 0)
(0.519481 -0.00207508 0)
(0.519481 -0.00207508 0)
(0.519481 -0.00207508 0)
(0.519481 -0.00207508 0)
(0.519481 -0.00207509 0)
(0.519481 -0.00207508 0)
(0.519481 -0.00207509 0)
(0.519481 -0.00207509 0)
(0.519481 -0.00207509 0)
(0.51948 -0.00207509 0)
(0.51948 -0.00207509 0)
(0.51948 -0.00207509 0)
(0.51948 -0.00207509 0)
(0.51948 -0.00207509 0)
(0.51948 -0.00207509 0)
(0.51948 -0.00207509 0)
(0.51948 -0.00207509 0)
(0.51948 -0.00207509 0)
(0.51948 -0.00207509 0)
(0.51948 -0.00207509 0)
(0.51948 -0.00207509 0)
(0.51948 -0.00207509 0)
(0.51948 -0.00207509 0)
(0.51948 -0.00207509 0)
(0.51948 -0.00207509 0)
(0.51948 -0.00207508 0)
(0.51948 -0.00207508 0)
(0.51948 -0.00207508 0)
(0.51948 -0.00207507 0)
(0.51948 -0.00207507 0)
(0.51948 -0.00207506 0)
(0.519479 -0.00207505 0)
(0.519479 -0.00207503 0)
(0.519478 -0.00207501 0)
(0.519478 -0.00207497 0)
(0.519476 -0.00207492 0)
(0.519475 -0.00207485 0)
(0.519472 -0.00207476 0)
(0.519469 -0.00207464 0)
(0.519464 -0.0020745 0)
(0.519458 -0.00207436 0)
(0.51945 -0.00207435 0)
(0.519443 -0.00207464 0)
(0.519436 -0.00207528 0)
(0.519442 -0.00207439 0)
(0.51936 -0.00206119 0)
(0.519228 -0.0020212 0)
(0.518638 -0.00215161 0)
(0.864904 0.128456 0)
(0.911539 0.016007 0)
(0.861932 0.000986828 0)
(0.871316 -7.14781e-05 0)
(0.867932 -0.000505972 0)
(0.86952 -0.000190942 0)
(0.868561 -0.000202173 0)
(0.868394 -0.000164393 0)
(0.867882 -0.000194098 0)
(0.867587 -0.000206928 0)
(0.867284 -0.000226493 0)
(0.86706 -0.000239493 0)
(0.866864 -0.000251643 0)
(0.866706 -0.000260847 0)
(0.866572 -0.000268067 0)
(0.866461 -0.000273776 0)
(0.866367 -0.000278483 0)
(0.866287 -0.000282319 0)
(0.866218 -0.000285493 0)
(0.86616 -0.000288147 0)
(0.866109 -0.000290414 0)
(0.866066 -0.000292312 0)
(0.866029 -0.000293944 0)
(0.865996 -0.000295351 0)
(0.865969 -0.000296566 0)
(0.865945 -0.000297584 0)
(0.865924 -0.000298483 0)
(0.865906 -0.000299251 0)
(0.865891 -0.00029992 0)
(0.865877 -0.000300485 0)
(0.865866 -0.000300995 0)
(0.865856 -0.000301414 0)
(0.865848 -0.000301782 0)
(0.865841 -0.00030209 0)
(0.865835 -0.000302367 0)
(0.86583 -0.000302584 0)
(0.865825 -0.00030279 0)
(0.865821 -0.000302949 0)
(0.865818 -0.000303098 0)
(0.865816 -0.000303206 0)
(0.865813 -0.000303319 0)
(0.865811 -0.000303396 0)
(0.86581 -0.000303472 0)
(0.865808 -0.000303526 0)
(0.865807 -0.000303587 0)
(0.865806 -0.00030362 0)
(0.865805 -0.000303664 0)
(0.865805 -0.000303688 0)
(0.865804 -0.000303722 0)
(0.865803 -0.00030373 0)
(0.865803 -0.00030376 0)
(0.865803 -0.000303766 0)
(0.865802 -0.000303786 0)
(0.865802 -0.000303786 0)
(0.865802 -0.000303803 0)
(0.865802 -0.000303801 0)
(0.865801 -0.000303815 0)
(0.865801 -0.00030381 0)
(0.865801 -0.000303824 0)
(0.865801 -0.000303819 0)
(0.865801 -0.000303833 0)
(0.865801 -0.000303827 0)
(0.865801 -0.000303839 0)
(0.865801 -0.000303833 0)
(0.865801 -0.000303843 0)
(0.865801 -0.000303834 0)
(0.865801 -0.000303843 0)
(0.865801 -0.000303835 0)
(0.865801 -0.000303843 0)
(0.865801 -0.000303833 0)
(0.865801 -0.000303843 0)
(0.865801 -0.000303834 0)
(0.865801 -0.000303841 0)
(0.865801 -0.000303832 0)
(0.865801 -0.000303838 0)
(0.865801 -0.000303828 0)
(0.865801 -0.000303829 0)
(0.865801 -0.000303817 0)
(0.865801 -0.000303817 0)
(0.8658 -0.000303798 0)
(0.8658 -0.000303789 0)
(0.8658 -0.000303762 0)
(0.8658 -0.000303739 0)
(0.865799 -0.000303691 0)
(0.865799 -0.000303633 0)
(0.865798 -0.000303542 0)
(0.865796 -0.000303421 0)
(0.865795 -0.00030324 0)
(0.865792 -0.000302994 0)
(0.865788 -0.000302651 0)
(0.865783 -0.000302199 0)
(0.865776 -0.000301644 0)
(0.865767 -0.000301026 0)
(0.865755 -0.000300674 0)
(0.865742 -0.000300891 0)
(0.865724 -0.000301453 0)
(0.865718 -0.000293345 0)
(0.865546 -0.000239575 0)
(0.865253 -7.34783e-05 0)
(0.863186 -0.000219216 0)
(0.960306 0.13591 0)
(1.02531 0.0244356 0)
(0.976298 0.00334373 0)
(0.987379 0.000823906 0)
(0.98307 0.000101997 0)
(0.984972 0.000607135 0)
(0.983898 0.000612943 0)
(0.983804 0.000676649 0)
(0.983282 0.000628462 0)
(0.983006 0.000604414 0)
(0.982706 0.000569892 0)
(0.982489 0.000546197 0)
(0.982297 0.000524471 0)
(0.982143 0.000507832 0)
(0.982013 0.000494557 0)
(0.981904 0.000484046 0)
(0.981812 0.000475395 0)
(0.981734 0.000468332 0)
(0.981667 0.000462484 0)
(0.981609 0.000457594 0)
(0.981559 0.000453406 0)
(0.981516 0.000449879 0)
(0.981479 0.000446852 0)
(0.981447 0.00044424 0)
(0.981419 0.000441971 0)
(0.981394 0.00044006 0)
(0.981373 0.000438384 0)
(0.981355 0.000436943 0)
(0.981339 0.000435669 0)
(0.981325 0.000434592 0)
(0.981313 0.00043362 0)
(0.981303 0.000432806 0)
(0.981294 0.000432094 0)
(0.981287 0.000431497 0)
(0.98128 0.000430957 0)
(0.981274 0.000430524 0)
(0.981269 0.000430121 0)
(0.981265 0.000429801 0)
(0.981262 0.000429506 0)
(0.981259 0.000429283 0)
(0.981256 0.00042906 0)
(0.981254 0.000428898 0)
(0.981252 0.000428743 0)
(0.98125 0.000428633 0)
(0.981249 0.000428509 0)
(0.981248 0.000428437 0)
(0.981247 0.000428348 0)
(0.981246 0.000428296 0)
(0.981245 0.000428226 0)
(0.981244 0.000428203 0)
(0.981244 0.000428148 0)
(0.981243 0.000428126 0)
(0.981243 0.000428087 0)
(0.981243 0.000428087 0)
(0.981242 0.000428055 0)
(0.981242 0.000428053 0)
(0.981242 0.000428028 0)
(0.981241 0.000428034 0)
(0.981241 0.000428006 0)
(0.981241 0.00042801 0)
(0.981241 0.000427981 0)
(0.981241 0.000427988 0)
(0.981241 0.000427965 0)
(0.981241 0.000427972 0)
(0.981241 0.000427954 0)
(0.981241 0.000427968 0)
(0.981241 0.000427955 0)
(0.981241 0.000427968 0)
(0.981241 0.000427954 0)
(0.981241 0.000427972 0)
(0.981241 0.000427956 0)
(0.981241 0.000427969 0)
(0.981241 0.00042796 0)
(0.981241 0.000427975 0)
(0.981241 0.000427967 0)
(0.981241 0.000427983 0)
(0.981241 0.000427984 0)
(0.981241 0.000428008 0)
(0.981241 0.000428009 0)
(0.98124 0.000428043 0)
(0.98124 0.000428062 0)
(0.98124 0.000428112 0)
(0.98124 0.00042816 0)
(0.981239 0.000428248 0)
(0.981239 0.000428362 0)
(0.981238 0.000428536 0)
(0.981236 0.000428768 0)
(0.981235 0.000429115 0)
(0.981232 0.000429588 0)
(0.981228 0.000430249 0)
(0.981223 0.000431129 0)
(0.981216 0.000432227 0)
(0.981206 0.000433536 0)
(0.981193 0.000434532 0)
(0.981179 0.000435194 0)
(0.981153 0.000436351 0)
(0.981133 0.000458773 0)
(0.980909 0.000569042 0)
(0.980543 0.000943041 0)
(0.977595 0.00117797 0)
(0.984959 0.123303 0)
(1.05948 0.0286626 0)
(1.01374 0.00469221 0)
(1.02589 0.000700127 0)
(1.02097 -0.000186186 0)
(1.02309 0.000441768 0)
(1.02197 0.000479893 0)
(1.02198 0.00056176 0)
(1.02149 0.000499896 0)
(1.02127 0.000464509 0)
(1.02101 0.000416439 0)
(1.02082 0.000382233 0)
(1.02065 0.000351155 0)
(1.02052 0.000326847 0)
(1.02041 0.000307911 0)
(1.02031 0.000293052 0)
(1.02023 0.000280859 0)
(1.02017 0.000270916 0)
(1.02011 0.000262687 0)
(1.02006 0.000255808 0)
(1.02001 0.000249922 0)
(1.01998 0.000244947 0)
(1.01994 0.000240672 0)
(1.01991 0.000236979 0)
(1.01989 0.000233764 0)
(1.01987 0.000231031 0)
(1.01985 0.000228634 0)
(1.01983 0.000226566 0)
(1.01982 0.00022474 0)
(1.0198 0.000223197 0)
(1.01979 0.000221812 0)
(1.01978 0.00022064 0)
(1.01977 0.000219612 0)
(1.01977 0.000218745 0)
(1.01976 0.000217961 0)
(1.01976 0.000217325 0)
(1.01975 0.000216735 0)
(1.01975 0.000216258 0)
(1.01974 0.000215821 0)
(1.01974 0.000215484 0)
(1.01974 0.000215154 0)
(1.01973 0.000214907 0)
(1.01973 0.000214674 0)
(1.01973 0.000214507 0)
(1.01973 0.000214323 0)
(1.01973 0.000214208 0)
(1.01973 0.000214073 0)
(1.01973 0.00021399 0)
(1.01973 0.000213884 0)
(1.01972 0.00021384 0)
(1.01972 0.000213761 0)
(1.01972 0.000213723 0)
(1.01972 0.000213662 0)
(1.01972 0.000213658 0)
(1.01972 0.000213615 0)
(1.01972 0.000213607 0)
(1.01972 0.000213571 0)
(1.01972 0.000213574 0)
(1.01972 0.000213533 0)
(1.01972 0.000213533 0)
(1.01972 0.000213488 0)
(1.01972 0.000213492 0)
(1.01972 0.000213457 0)
(1.01972 0.000213463 0)
(1.01972 0.000213438 0)
(1.01972 0.000213455 0)
(1.01972 0.000213439 0)
(1.01972 0.000213455 0)
(1.01972 0.000213437 0)
(1.01972 0.000213461 0)
(1.01972 0.000213442 0)
(1.01972 0.000213456 0)
(1.01972 0.000213446 0)
(1.01972 0.000213467 0)
(1.01972 0.000213459 0)
(1.01972 0.00021348 0)
(1.01972 0.000213484 0)
(1.01972 0.000213518 0)
(1.01972 0.000213523 0)
(1.01972 0.000213571 0)
(1.01972 0.0002136 0)
(1.01972 0.000213672 0)
(1.01972 0.000213745 0)
(1.01972 0.000213871 0)
(1.01972 0.000214039 0)
(1.01972 0.000214293 0)
(1.01972 0.000214631 0)
(1.01972 0.000215132 0)
(1.01971 0.000215822 0)
(1.01971 0.000216784 0)
(1.0197 0.000218082 0)
(1.0197 0.000219722 0)
(1.01969 0.000221793 0)
(1.01968 0.000223667 0)
(1.01966 0.000226073 0)
(1.01963 0.000230502 0)
(1.0196 0.000271506 0)
(1.01935 0.000444076 0)
(1.01899 0.00104958 0)
(1.01589 0.00176922 0)
(0.988567 0.109984 0)
(1.06794 0.0309705 0)
(1.02558 0.00569802 0)
(1.03849 0.000547508 0)
(1.03316 -0.000407888 0)
(1.03543 0.000296731 0)
(1.03431 0.000368675 0)
(1.03442 0.000461707 0)
(1.03398 0.000390586 0)
(1.03382 0.000345786 0)
(1.0336 0.000287376 0)
(1.03346 0.000244975 0)
(1.03332 0.000206881 0)
(1.03321 0.000176992 0)
(1.03312 0.000153506 0)
(1.03305 0.000135013 0)
(1.03298 0.000119841 0)
(1.03293 0.000107464 0)
(1.03288 9.72125e-05 0)
(1.03284 8.86231e-05 0)
(1.0328 8.12593e-05 0)
(1.03277 7.49981e-05 0)
(1.03274 6.95868e-05 0)
(1.03272 6.48837e-05 0)
(1.0327 6.07522e-05 0)
(1.03268 5.71838e-05 0)
(1.03266 5.40168e-05 0)
(1.03265 5.12465e-05 0)
(1.03263 4.88943e-05 0)
(1.03262 4.69548e-05 0)
(1.03261 4.52237e-05 0)
(1.03261 4.37465e-05 0)
(1.0326 4.24447e-05 0)
(1.03259 4.13445e-05 0)
(1.03259 4.03489e-05 0)
(1.03258 3.95316e-05 0)
(1.03258 3.87752e-05 0)
(1.03257 3.81562e-05 0)
(1.03257 3.7591e-05 0)
(1.03257 3.71467e-05 0)
(1.03256 3.67178e-05 0)
(1.03256 3.63927e-05 0)
(1.03256 3.60845e-05 0)
(1.03256 3.5862e-05 0)
(1.03256 3.56216e-05 0)
(1.03255 3.54629e-05 0)
(1.03255 3.52828e-05 0)
(1.03255 3.51683e-05 0)
(1.03255 3.50296e-05 0)
(1.03255 3.49627e-05 0)
(1.03255 3.48617e-05 0)
(1.03255 3.48087e-05 0)
(1.03255 3.47258e-05 0)
(1.03255 3.47161e-05 0)
(1.03255 3.46643e-05 0)
(1.03255 3.46502e-05 0)
(1.03255 3.46028e-05 0)
(1.03255 3.46023e-05 0)
(1.03255 3.45483e-05 0)
(1.03255 3.45414e-05 0)
(1.03255 3.44818e-05 0)
(1.03255 3.44786e-05 0)
(1.03255 3.44323e-05 0)
(1.03255 3.44341e-05 0)
(1.03255 3.44036e-05 0)
(1.03255 3.44204e-05 0)
(1.03255 3.44042e-05 0)
(1.03255 3.44223e-05 0)
(1.03255 3.44017e-05 0)
(1.03255 3.44297e-05 0)
(1.03255 3.44086e-05 0)
(1.03255 3.44242e-05 0)
(1.03255 3.44131e-05 0)
(1.03255 3.44397e-05 0)
(1.03255 3.44324e-05 0)
(1.03255 3.44589e-05 0)
(1.03255 3.44662e-05 0)
(1.03255 3.45094e-05 0)
(1.03255 3.45186e-05 0)
(1.03255 3.45762e-05 0)
(1.03255 3.46157e-05 0)
(1.03255 3.47048e-05 0)
(1.03255 3.47995e-05 0)
(1.03255 3.49581e-05 0)
(1.03255 3.51719e-05 0)
(1.03254 3.54943e-05 0)
(1.03254 3.59258e-05 0)
(1.03254 3.65566e-05 0)
(1.03254 3.74294e-05 0)
(1.03254 3.86461e-05 0)
(1.03253 4.03051e-05 0)
(1.03253 4.2432e-05 0)
(1.03252 4.52578e-05 0)
(1.03251 4.81701e-05 0)
(1.03249 5.31854e-05 0)
(1.03246 6.2312e-05 0)
(1.03242 0.000123561 0)
(1.03218 0.000349194 0)
(1.03186 0.00116813 0)
(1.02902 0.00229696 0)
(0.986394 0.098308 0)
(1.06821 0.032197 0)
(1.02896 0.00652343 0)
(1.04242 0.000502596 0)
(1.0368 -0.000472405 0)
(1.03921 0.000276582 0)
(1.03808 0.000379861 0)
(1.03829 0.000478612 0)
(1.03792 0.000402476 0)
(1.03782 0.0003511 0)
(1.03764 0.00028632 0)
(1.03753 0.00023898 0)
(1.03743 0.000197186 0)
(1.03735 0.000164714 0)
(1.03728 0.000137992 0)
(1.03722 0.000116736 0)
(1.03717 9.93041e-05 0)
(1.03713 8.50989e-05 0)
(1.03709 7.33435e-05 0)
(1.03706 6.34957e-05 0)
(1.03703 5.50639e-05 0)
(1.03701 4.78881e-05 0)
(1.03698 4.16811e-05 0)
(1.03697 3.62941e-05 0)
(1.03695 3.15634e-05 0)
(1.03693 2.74612e-05 0)
(1.03692 2.38218e-05 0)
(1.03691 2.06441e-05 0)
(1.0369 1.7924e-05 0)
(1.03689 1.5663e-05 0)
(1.03688 1.36503e-05 0)
(1.03687 1.19247e-05 0)
(1.03687 1.03915e-05 0)
(1.03686 9.0929e-06 0)
(1.03686 7.91649e-06 0)
(1.03685 6.94008e-06 0)
(1.03685 6.03437e-06 0)
(1.03685 5.28518e-06 0)
(1.03684 4.5979e-06 0)
(1.03684 4.04892e-06 0)
(1.03684 3.52064e-06 0)
(1.03684 3.11432e-06 0)
(1.03683 2.72395e-06 0)
(1.03683 2.43763e-06 0)
(1.03683 2.13001e-06 0)
(1.03683 1.91879e-06 0)
(1.03683 1.68743e-06 0)
(1.03683 1.54497e-06 0)
(1.03683 1.37798e-06 0)
(1.03683 1.28881e-06 0)
(1.03683 1.16707e-06 0)
(1.03683 1.10171e-06 0)
(1.03683 9.98273e-07 0)
(1.03682 9.82221e-07 0)
(1.03682 9.23793e-07 0)
(1.03682 9.05267e-07 0)
(1.03682 8.46949e-07 0)
(1.03682 8.41955e-07 0)
(1.03682 7.75906e-07 0)
(1.03682 7.60613e-07 0)
(1.03682 6.86447e-07 0)
(1.03682 6.74624e-07 0)
(1.03682 6.15974e-07 0)
(1.03682 6.13332e-07 0)
(1.03682 5.76677e-07 0)
(1.03682 5.93442e-07 0)
(1.03682 5.76102e-07 0)
(1.03682 5.9734e-07 0)
(1.03682 5.74134e-07 0)
(1.03682 6.04907e-07 0)
(1.03682 5.83704e-07 0)
(1.03682 6.00728e-07 0)
(1.03682 5.88607e-07 0)
(1.03682 6.2118e-07 0)
(1.03682 6.15466e-07 0)
(1.03682 6.47232e-07 0)
(1.03682 6.57465e-07 0)
(1.03682 7.08114e-07 0)
(1.03682 7.21154e-07 0)
(1.03682 7.86427e-07 0)
(1.03682 8.33196e-07 0)
(1.03682 9.36594e-07 0)
(1.03682 1.04893e-06 0)
(1.03682 1.2347e-06 0)
(1.03682 1.48425e-06 0)
(1.03682 1.86498e-06 0)
(1.03682 2.40111e-06 0)
(1.03682 3.16794e-06 0)
(1.03682 4.21345e-06 0)
(1.03682 5.65642e-06 0)
(1.03681 7.63289e-06 0)
(1.03681 1.01978e-05 0)
(1.0368 1.37584e-05 0)
(1.03679 1.77895e-05 0)
(1.03678 2.54925e-05 0)
(1.03674 3.93221e-05 0)
(1.0367 0.000119307 0)
(1.03647 0.000383872 0)
(1.03621 0.00139849 0)
(1.03382 0.00284676 0)
(0.983101 0.0877045 0)
(1.0661 0.0325103 0)
(1.02959 0.00711505 0)
(1.04347 0.000479368 0)
(1.03762 -0.000484955 0)
(1.04015 0.000282296 0)
(1.03902 0.000415392 0)
(1.03932 0.000517824 0)
(1.039 0.000438926 0)
(1.03896 0.000382403 0)
(1.03883 0.000312605 0)
(1.03876 0.00026099 0)
(1.03869 0.000215654 0)
(1.03863 0.000180356 0)
(1.03858 0.000151238 0)
(1.03854 0.000128068 0)
(1.03851 0.000109091 0)
(1.03848 9.36587e-05 0)
(1.03845 8.09168e-05 0)
(1.03843 7.02624e-05 0)
(1.03841 6.11741e-05 0)
(1.03839 5.34625e-05 0)
(1.03837 4.68099e-05 0)
(1.03836 4.10749e-05 0)
(1.03835 3.60745e-05 0)
(1.03834 3.17574e-05 0)
(1.03833 2.79606e-05 0)
(1.03832 2.46875e-05 0)
(1.03831 2.17668e-05 0)
(1.0383 1.92625e-05 0)
(1.0383 1.70342e-05 0)
(1.03829 1.51195e-05 0)
(1.03829 1.34024e-05 0)
(1.03828 1.19443e-05 0)
(1.03828 1.0622e-05 0)
(1.03827 9.51445e-06 0)
(1.03827 8.48205e-06 0)
(1.03827 7.62077e-06 0)
(1.03826 6.82473e-06 0)
(1.03826 6.17998e-06 0)
(1.03826 5.5594e-06 0)
(1.03826 5.07673e-06 0)
(1.03826 4.60564e-06 0)
(1.03826 4.25408e-06 0)
(1.03826 3.8805e-06 0)
(1.03825 3.63359e-06 0)
(1.03825 3.36569e-06 0)
(1.03825 3.1979e-06 0)
(1.03825 3.00487e-06 0)
(1.03825 2.89533e-06 0)
(1.03825 2.75521e-06 0)
(1.03825 2.68152e-06 0)
(1.03825 2.56039e-06 0)
(1.03825 2.53776e-06 0)
(1.03825 2.47452e-06 0)
(1.03825 2.45397e-06 0)
(1.03825 2.38572e-06 0)
(1.03825 2.37573e-06 0)
(1.03825 2.29909e-06 0)
(1.03825 2.27467e-06 0)
(1.03825 2.18682e-06 0)
(1.03825 2.16556e-06 0)
(1.03825 2.09405e-06 0)
(1.03825 2.08662e-06 0)
(1.03825 2.04345e-06 0)
(1.03825 2.0602e-06 0)
(1.03825 2.04119e-06 0)
(1.03825 2.06608e-06 0)
(1.03825 2.04099e-06 0)
(1.03825 2.07351e-06 0)
(1.03825 2.05292e-06 0)
(1.03825 2.07261e-06 0)
(1.03825 2.05918e-06 0)
(1.03825 2.09798e-06 0)
(1.03825 2.09441e-06 0)
(1.03825 2.13156e-06 0)
(1.03825 2.14411e-06 0)
(1.03825 2.20076e-06 0)
(1.03825 2.21681e-06 0)
(1.03825 2.28756e-06 0)
(1.03825 2.33908e-06 0)
(1.03825 2.45328e-06 0)
(1.03825 2.5788e-06 0)
(1.03825 2.78632e-06 0)
(1.03825 3.06205e-06 0)
(1.03825 3.488e-06 0)
(1.03825 4.09205e-06 0)
(1.03825 4.98959e-06 0)
(1.03824 6.18969e-06 0)
(1.03824 7.82616e-06 0)
(1.03824 1.00718e-05 0)
(1.03824 1.302e-05 0)
(1.03823 1.72684e-05 0)
(1.03822 2.24228e-05 0)
(1.03821 3.26197e-05 0)
(1.03818 5.06616e-05 0)
(1.03814 0.000147049 0)
(1.03794 0.000446115 0)
(1.03774 0.00162564 0)
(1.03587 0.00331286 0)
(0.980018 0.0779998 0)
(1.06348 0.0320577 0)
(1.02937 0.00745947 0)
(1.04355 0.00044412 0)
(1.03755 -0.000488772 0)
(1.04016 0.000278264 0)
(1.03904 0.000437845 0)
(1.03943 0.000541804 0)
(1.03916 0.000462441 0)
(1.03917 0.00040254 0)
(1.03908 0.000329644 0)
(1.03905 0.00027511 0)
(1.039 0.000227278 0)
(1.03897 0.000189869 0)
(1.03894 0.000159182 0)
(1.03892 0.000134792 0)
(1.03889 0.000114824 0)
(1.03888 9.86005e-05 0)
(1.03886 8.52131e-05 0)
(1.03885 7.40159e-05 0)
(1.03883 6.44751e-05 0)
(1.03882 5.63844e-05 0)
(1.03881 4.93938e-05 0)
(1.0388 4.33782e-05 0)
(1.0388 3.81399e-05 0)
(1.03879 3.36063e-05 0)
(1.03878 2.96118e-05 0)
(1.03877 2.61787e-05 0)
(1.03877 2.30951e-05 0)
(1.03876 2.04271e-05 0)
(1.03876 1.80543e-05 0)
(1.03876 1.60179e-05 0)
(1.03875 1.41765e-05 0)
(1.03875 1.26098e-05 0)
(1.03875 1.11901e-05 0)
(1.03874 9.99596e-06 0)
(1.03874 8.87851e-06 0)
(1.03874 7.94425e-06 0)
(1.03874 7.07769e-06 0)
(1.03873 6.37208e-06 0)
(1.03873 5.69708e-06 0)
(1.03873 5.17389e-06 0)
(1.03873 4.66119e-06 0)
(1.03873 4.27786e-06 0)
(1.03873 3.87584e-06 0)
(1.03873 3.6063e-06 0)
(1.03873 3.30798e-06 0)
(1.03873 3.10965e-06 0)
(1.03873 2.88272e-06 0)
(1.03873 2.75555e-06 0)
(1.03873 2.59922e-06 0)
(1.03873 2.5212e-06 0)
(1.03872 2.38591e-06 0)
(1.03872 2.35693e-06 0)
(1.03872 2.28953e-06 0)
(1.03872 2.2694e-06 0)
(1.03872 2.19219e-06 0)
(1.03872 2.17713e-06 0)
(1.03872 2.09061e-06 0)
(1.03872 2.05648e-06 0)
(1.03872 1.95541e-06 0)
(1.03872 1.92485e-06 0)
(1.03872 1.84036e-06 0)
(1.03872 1.82813e-06 0)
(1.03872 1.77798e-06 0)
(1.03872 1.79501e-06 0)
(1.03872 1.77347e-06 0)
(1.03872 1.80245e-06 0)
(1.03872 1.77638e-06 0)
(1.03872 1.81011e-06 0)
(1.03872 1.79029e-06 0)
(1.03872 1.81428e-06 0)
(1.03872 1.79955e-06 0)
(1.03872 1.84453e-06 0)
(1.03872 1.8436e-06 0)
(1.03872 1.88625e-06 0)
(1.03872 1.90012e-06 0)
(1.03872 1.96124e-06 0)
(1.03872 1.97913e-06 0)
(1.03872 2.05354e-06 0)
(1.03872 2.10806e-06 0)
(1.03872 2.23125e-06 0)
(1.03872 2.36673e-06 0)
(1.03872 2.59171e-06 0)
(1.03872 2.8857e-06 0)
(1.03872 3.36325e-06 0)
(1.03872 3.99762e-06 0)
(1.03872 4.94356e-06 0)
(1.03872 6.21499e-06 0)
(1.03872 7.96094e-06 0)
(1.03872 1.03857e-05 0)
(1.03872 1.3626e-05 0)
(1.03871 1.84636e-05 0)
(1.0387 2.46764e-05 0)
(1.03869 3.74897e-05 0)
(1.03867 5.98222e-05 0)
(1.03863 0.000170614 0)
(1.03847 0.000496013 0)
(1.03834 0.00179843 0)
(1.03701 0.00365047 0)
(0.977434 0.069159 0)
(1.06096 0.0310002 0)
(1.02893 0.00758177 0)
(1.04333 0.000400082 0)
(1.03721 -0.0004876 0)
(1.03989 0.000264867 0)
(1.03878 0.000446072 0)
(1.03924 0.000549443 0)
(1.03901 0.000471708 0)
(1.03908 0.000410292 0)
(1.03902 0.000336396 0)
(1.03902 0.000280591 0)
(1.039 0.000231701 0)
(1.03899 0.000193327 0)
(1.03898 0.000161937 0)
(1.03898 0.000137001 0)
(1.03897 0.00011659 0)
(1.03896 0.000100014 0)
(1.03895 8.63365e-05 0)
(1.03895 7.4886e-05 0)
(1.03894 6.51311e-05 0)
(1.03894 5.68627e-05 0)
(1.03893 4.96992e-05 0)
(1.03893 4.35366e-05 0)
(1.03892 3.81694e-05 0)
(1.03892 3.35086e-05 0)
(1.03892 2.93818e-05 0)
(1.03891 2.58371e-05 0)
(1.03891 2.26632e-05 0)
(1.03891 1.99088e-05 0)
(1.03891 1.74583e-05 0)
(1.0389 1.53629e-05 0)
(1.0389 1.34547e-05 0)
(1.0389 1.1828e-05 0)
(1.0389 1.03562e-05 0)
(1.0389 9.1173e-06 0)
(1.03889 7.95354e-06 0)
(1.03889 6.98206e-06 0)
(1.03889 6.07962e-06 0)
(1.03889 5.34435e-06 0)
(1.03889 4.64721e-06 0)
(1.03889 4.1134e-06 0)
(1.03889 3.59142e-06 0)
(1.03889 3.20358e-06 0)
(1.03889 2.80095e-06 0)
(1.03889 2.51421e-06 0)
(1.03888 2.19547e-06 0)
(1.03888 1.98282e-06 0)
(1.03888 1.74128e-06 0)
(1.03888 1.60094e-06 0)
(1.03888 1.42993e-06 0)
(1.03888 1.3506e-06 0)
(1.03888 1.20385e-06 0)
(1.03888 1.16907e-06 0)
(1.03888 1.09657e-06 0)
(1.03888 1.07869e-06 0)
(1.03888 9.92104e-07 0)
(1.03888 9.71653e-07 0)
(1.03888 8.72959e-07 0)
(1.03888 8.27137e-07 0)
(1.03888 7.11829e-07 0)
(1.03888 6.72569e-07 0)
(1.03888 5.75227e-07 0)
(1.03888 5.57992e-07 0)
(1.03888 5.00504e-07 0)
(1.03888 5.18036e-07 0)
(1.03888 4.93441e-07 0)
(1.03888 5.26225e-07 0)
(1.03888 5.00363e-07 0)
(1.03888 5.3518e-07 0)
(1.03888 5.15926e-07 0)
(1.03888 5.45824e-07 0)
(1.03888 5.30398e-07 0)
(1.03888 5.81514e-07 0)
(1.03888 5.83624e-07 0)
(1.03888 6.32021e-07 0)
(1.03888 6.46149e-07 0)
(1.03888 7.10117e-07 0)
(1.03888 7.28542e-07 0)
(1.03888 8.0503e-07 0)
(1.03888 8.63885e-07 0)
(1.03888 9.9887e-07 0)
(1.03888 1.14446e-06 0)
(1.03888 1.38558e-06 0)
(1.03888 1.69108e-06 0)
(1.03888 2.18799e-06 0)
(1.03888 2.83179e-06 0)
(1.03888 3.75945e-06 0)
(1.03888 5.03179e-06 0)
(1.03888 6.81291e-06 0)
(1.03888 9.33199e-06 0)
(1.03888 1.27701e-05 0)
(1.03887 1.80749e-05 0)
(1.03887 2.5209e-05 0)
(1.03886 4.03968e-05 0)
(1.03884 6.65094e-05 0)
(1.03881 0.000188506 0)
(1.03869 0.000530293 0)
(1.03863 0.00191141 0)
(1.03784 0.00385962 0)
(0.975341 0.0610855 0)
(1.0587 0.0294648 0)
(1.02847 0.00751076 0)
(1.04304 0.000353682 0)
(1.03682 -0.000479798 0)
(1.03954 0.000245936 0)
(1.03844 0.000442946 0)
(1.03896 0.000543892 0)
(1.03878 0.000469473 0)
(1.0389 0.000408227 0)
(1.03888 0.0003352 0)
(1.03891 0.000279618 0)
(1.03891 0.000230976 0)
(1.03892 0.000192682 0)
(1.03893 0.000161394 0)
(1.03893 0.000136546 0)
(1.03894 0.000116212 0)
(1.03894 9.97031e-05 0)
(1.03894 8.60823e-05 0)
(1.03895 7.4667e-05 0)
(1.03895 6.49416e-05 0)
(1.03895 5.67075e-05 0)
(1.03895 4.95562e-05 0)
(1.03895 4.34049e-05 0)
(1.03895 3.80475e-05 0)
(1.03895 3.33851e-05 0)
(1.03895 2.9236e-05 0)
(1.03895 2.56736e-05 0)
(1.03895 2.24912e-05 0)
(1.03895 1.97206e-05 0)
(1.03895 1.72497e-05 0)
(1.03894 1.51466e-05 0)
(1.03894 1.32192e-05 0)
(1.03894 1.15706e-05 0)
(1.03894 1.00791e-05 0)
(1.03894 8.82411e-06 0)
(1.03894 7.63768e-06 0)
(1.03894 6.64823e-06 0)
(1.03894 5.72529e-06 0)
(1.03894 4.97129e-06 0)
(1.03894 4.25889e-06 0)
(1.03894 3.71877e-06 0)
(1.03894 3.18892e-06 0)
(1.03894 2.79568e-06 0)
(1.03894 2.39061e-06 0)
(1.03894 2.10325e-06 0)
(1.03894 1.78564e-06 0)
(1.03894 1.57813e-06 0)
(1.03894 1.34468e-06 0)
(1.03894 1.19852e-06 0)
(1.03894 1.01816e-06 0)
(1.03894 9.42008e-07 0)
(1.03894 7.91142e-07 0)
(1.03893 7.53723e-07 0)
(1.03893 6.784e-07 0)
(1.03893 6.65283e-07 0)
(1.03893 5.74445e-07 0)
(1.03893 5.50194e-07 0)
(1.03893 4.45824e-07 0)
(1.03893 3.92643e-07 0)
(1.03893 2.66566e-07 0)
(1.03893 2.19476e-07 0)
(1.03893 1.0909e-07 0)
(1.03893 8.57499e-08 0)
(1.03893 2.1135e-08 0)
(1.03893 3.8764e-08 0)
(1.03893 1.17009e-08 0)
(1.03893 4.66865e-08 0)
(1.03893 2.26351e-08 0)
(1.03893 5.83864e-08 0)
(1.03893 3.95787e-08 0)
(1.03893 7.64758e-08 0)
(1.03893 6.15514e-08 0)
(1.03893 1.19727e-07 0)
(1.03893 1.25253e-07 0)
(1.03893 1.79979e-07 0)
(1.03893 1.93521e-07 0)
(1.03893 2.58702e-07 0)
(1.03893 2.76314e-07 0)
(1.03893 3.53112e-07 0)
(1.03893 4.10511e-07 0)
(1.03893 5.48047e-07 0)
(1.03893 6.95816e-07 0)
(1.03893 9.43779e-07 0)
(1.03893 1.24908e-06 0)
(1.03893 1.7243e-06 0)
(1.03893 2.34856e-06 0)
(1.03893 3.26061e-06 0)
(1.03893 4.52369e-06 0)
(1.03893 6.31296e-06 0)
(1.03893 8.87683e-06 0)
(1.03893 1.24378e-05 0)
(1.03893 1.80833e-05 0)
(1.03893 2.59505e-05 0)
(1.03892 4.30421e-05 0)
(1.03891 7.20597e-05 0)
(1.03889 0.000201426 0)
(1.03882 0.000549931 0)
(1.03882 0.00196689 0)
(1.03856 0.00394851 0)
(0.973661 0.0536587 0)
(1.05672 0.0275451 0)
(1.02805 0.00727035 0)
(1.04273 0.000307992 0)
(1.03644 -0.00046503 0)
(1.03919 0.000223333 0)
(1.0381 0.000429685 0)
(1.03868 0.000526589 0)
(1.03854 0.000456798 0)
(1.03869 0.000397207 0)
(1.03871 0.000326664 0)
(1.03876 0.000272613 0)
(1.03879 0.000225345 0)
(1.03882 0.000188032 0)
(1.03884 0.000157571 0)
(1.03886 0.000133389 0)
(1.03888 0.000113602 0)
(1.03889 9.75423e-05 0)
(1.0389 8.42919e-05 0)
(1.03891 7.31747e-05 0)
(1.03892 6.37002e-05 0)
(1.03892 5.56922e-05 0)
(1.03893 4.87232e-05 0)
(1.03893 4.27278e-05 0)
(1.03894 3.75062e-05 0)
(1.03894 3.29566e-05 0)
(1.03894 2.8887e-05 0)
(1.03895 2.5393e-05 0)
(1.03895 2.22773e-05 0)
(1.03895 1.95574e-05 0)
(1.03895 1.71216e-05 0)
(1.03895 1.50586e-05 0)
(1.03895 1.31579e-05 0)
(1.03895 1.15253e-05 0)
(1.03895 1.00459e-05 0)
(1.03895 8.80317e-06 0)
(1.03895 7.61846e-06 0)
(1.03895 6.63104e-06 0)
(1.03895 5.70438e-06 0)
(1.03895 4.94439e-06 0)
(1.03895 4.22512e-06 0)
(1.03895 3.68462e-06 0)
(1.03895 3.15025e-06 0)
(1.03895 2.75355e-06 0)
(1.03895 2.34453e-06 0)
(1.03895 2.05859e-06 0)
(1.03895 1.74058e-06 0)
(1.03895 1.5356e-06 0)
(1.03895 1.3052e-06 0)
(1.03895 1.1598e-06 0)
(1.03895 9.76182e-07 0)
(1.03895 9.07235e-07 0)
(1.03895 7.59802e-07 0)
(1.03895 7.2366e-07 0)
(1.03895 6.48283e-07 0)
(1.03895 6.41955e-07 0)
(1.03895 5.5274e-07 0)
(1.03895 5.26934e-07 0)
(1.03895 4.23853e-07 0)
(1.03895 3.68645e-07 0)
(1.03895 2.36148e-07 0)
(1.03895 1.82403e-07 0)
(1.03895 6.17444e-08 0)
(1.03895 3.30733e-08 0)
(1.03895 -3.89833e-08 0)
(1.03895 -2.09418e-08 0)
(1.03895 -5.12848e-08 0)
(1.03895 -1.43226e-08 0)
(1.03895 -3.57616e-08 0)
(1.03895 1.52758e-09 0)
(1.03895 -1.63332e-08 0)
(1.03895 2.77204e-08 0)
(1.03895 1.45742e-08 0)
(1.03895 7.85387e-08 0)
(1.03895 8.72853e-08 0)
(1.03895 1.47591e-07 0)
(1.03895 1.59818e-07 0)
(1.03895 2.23934e-07 0)
(1.03895 2.39349e-07 0)
(1.03895 3.14406e-07 0)
(1.03895 3.64469e-07 0)
(1.03895 4.94512e-07 0)
(1.03895 6.36202e-07 0)
(1.03895 8.81177e-07 0)
(1.03895 1.17711e-06 0)
(1.03895 1.63977e-06 0)
(1.03895 2.24856e-06 0)
(1.03895 3.14647e-06 0)
(1.03895 4.38906e-06 0)
(1.03895 6.15862e-06 0)
(1.03895 8.71645e-06 0)
(1.03895 1.23188e-05 0)
(1.03895 1.81576e-05 0)
(1.03895 2.65201e-05 0)
(1.03895 4.49273e-05 0)
(1.03895 7.58225e-05 0)
(1.03893 0.000208512 0)
(1.03892 0.000554622 0)
(1.03898 0.00196671 0)
(1.03921 0.00392518 0)
(0.972314 0.0467714 0)
(1.055 0.0253138 0)
(1.02768 0.00688135 0)
(1.04245 0.000264443 0)
(1.0361 -0.000443193 0)
(1.03887 0.000198373 0)
(1.03778 0.000407226 0)
(1.03842 0.000498595 0)
(1.03831 0.000434445 0)
(1.0385 0.000377819 0)
(1.03854 0.000311169 0)
(1.03862 0.000259807 0)
(1.03867 0.000214909 0)
(1.03871 0.000179381 0)
(1.03875 0.000150397 0)
(1.03878 0.000127398 0)
(1.03881 0.000108581 0)
(1.03883 9.33121e-05 0)
(1.03885 8.07131e-05 0)
(1.03886 7.01294e-05 0)
(1.03888 6.11041e-05 0)
(1.03889 5.34919e-05 0)
(1.0389 4.68572e-05 0)
(1.03891 4.11467e-05 0)
(1.03892 3.61719e-05 0)
(1.03892 3.18354e-05 0)
(1.03893 2.79355e-05 0)
(1.03893 2.45859e-05 0)
(1.03894 2.1605e-05 0)
(1.03894 1.90001e-05 0)
(1.03894 1.6654e-05 0)
(1.03894 1.46775e-05 0)
(1.03895 1.28487e-05 0)
(1.03895 1.12711e-05 0)
(1.03895 9.83792e-06 0)
(1.03895 8.63782e-06 0)
(1.03895 7.48295e-06 0)
(1.03895 6.52172e-06 0)
(1.03895 5.61363e-06 0)
(1.03895 4.86668e-06 0)
(1.03895 4.15625e-06 0)
(1.03896 3.6285e-06 0)
(1.03896 3.10188e-06 0)
(1.03896 2.71264e-06 0)
(1.03896 2.30854e-06 0)
(1.03896 2.0305e-06 0)
(1.03896 1.71649e-06 0)
(1.03896 1.51744e-06 0)
(1.03896 1.29215e-06 0)
(1.03896 1.15236e-06 0)
(1.03896 9.68716e-07 0)
(1.03896 9.08419e-07 0)
(1.03896 7.67099e-07 0)
(1.03896 7.34733e-07 0)
(1.03896 6.59165e-07 0)
(1.03896 6.60023e-07 0)
(1.03896 5.73136e-07 0)
(1.03896 5.4707e-07 0)
(1.03896 4.43227e-07 0)
(1.03896 3.8593e-07 0)
(1.03896 2.47546e-07 0)
(1.03896 1.88057e-07 0)
(1.03896 6.06783e-08 0)
(1.03896 2.7652e-08 0)
(1.03896 -5.20062e-08 0)
(1.03896 -3.34519e-08 0)
(1.03896 -6.77053e-08 0)
(1.03896 -2.88774e-08 0)
(1.03896 -4.73263e-08 0)
(1.03896 -6.81738e-09 0)
(1.03896 -2.34852e-08 0)
(1.03896 2.72967e-08 0)
(1.03896 1.79409e-08 0)
(1.03896 8.54788e-08 0)
(1.03896 9.69314e-08 0)
(1.03896 1.61556e-07 0)
(1.03896 1.72142e-07 0)
(1.03896 2.32754e-07 0)
(1.03896 2.44662e-07 0)
(1.03896 3.1622e-07 0)
(1.03896 3.60966e-07 0)
(1.03896 4.85844e-07 0)
(1.03896 6.21878e-07 0)
(1.03896 8.62478e-07 0)
(1.03896 1.14596e-06 0)
(1.03896 1.59351e-06 0)
(1.03896 2.17874e-06 0)
(1.03896 3.04413e-06 0)
(1.03896 4.23941e-06 0)
(1.03896 5.94886e-06 0)
(1.03896 8.43994e-06 0)
(1.03896 1.19909e-05 0)
(1.03896 1.78548e-05 0)
(1.03897 2.64364e-05 0)
(1.03897 4.54944e-05 0)
(1.03897 7.71604e-05 0)
(1.03896 0.000209094 0)
(1.03901 0.000544202 0)
(1.03912 0.00191347 0)
(1.03982 0.00379823 0)
(0.971235 0.0403343 0)
(1.05354 0.02283 0)
(1.02737 0.00636285 0)
(1.0422 0.000223817 0)
(1.03581 -0.000414061 0)
(1.03857 0.000172309 0)
(1.03749 0.000376712 0)
(1.03817 0.000461148 0)
(1.0381 0.000403406 0)
(1.03832 0.000350891 0)
(1.03838 0.000289359 0)
(1.03849 0.000241709 0)
(1.03855 0.000200066 0)
(1.03862 0.000167038 0)
(1.03866 0.000140111 0)