/*--------------------------------*- C++ -*----------------------------------*\
  =========                 |
  \\      /  F ield         | OpenFOAM: The Open Source CFD Toolbox
   \\    /   O peration     | Website:  https://openfoam.org
    \\  /    A nd           | Version:  7
     \\/     M anipulation  |
\*---------------------------------------------------------------------------*/
FoamFile
{
    version     2.0;
    format      ascii;
    class       volScalarField;
    location    "3.5";
    object      Uy;
}
// * * * * * * * * * * * * * * * * * * * * * * * * * * * * * * * * * * * * * //

dimensions      [0 1 -1 0 0 0 0];

internalField   nonuniform List<scalar> 
4000
(
0.0563971
0.00359851
-0.00176415
-0.00200137
-0.00213094
-0.00203765
-0.00204473
-0.00203494
-0.00204442
-0.00204833
-0.0020541
-0.00205784
-0.00206127
-0.0020638
-0.00206588
-0.00206751
-0.00206884
-0.00206989
-0.00207074
-0.00207145
-0.00207202
-0.00207249
-0.00207289
-0.00207323
-0.00207351
-0.00207375
-0.00207396
-0.00207412
-0.00207427
-0.00207439
-0.0020745
-0.00207459
-0.00207467
-0.00207473
-0.00207479
-0.00207483
-0.00207488
-0.00207491
-0.00207494
-0.00207496
-0.00207499
-0.002075
-0.00207502
-0.00207503
-0.00207504
-0.00207505
-0.00207506
-0.00207506
-0.00207507
-0.00207507
-0.00207508
-0.00207507
-0.00207508
-0.00207508
-0.00207508
-0.00207508
-0.00207509
-0.00207508
-0.00207509
-0.00207509
-0.00207509
-0.00207509
-0.00207509
-0.00207509
-0.00207509
-0.00207509
-0.00207509
-0.00207509
-0.00207509
-0.00207509
-0.00207509
-0.00207509
-0.00207509
-0.00207509
-0.00207509
-0.00207509
-0.00207509
-0.00207508
-0.00207508
-0.00207508
-0.00207507
-0.00207507
-0.00207506
-0.00207505
-0.00207503
-0.00207501
-0.00207497
-0.00207492
-0.00207485
-0.00207476
-0.00207464
-0.0020745
-0.00207436
-0.00207435
-0.00207464
-0.00207528
-0.00207439
-0.00206119
-0.0020212
-0.00215161
0.128456
0.016007
0.000986828
-7.14781e-05
-0.000505972
-0.000190942
-0.000202173
-0.000164393
-0.000194098
-0.000206928
-0.000226493
-0.000239493
-0.000251643
-0.000260847
-0.000268067
-0.000273776
-0.000278483
-0.000282319
-0.000285493
-0.000288147
-0.000290414
-0.000292312
-0.000293944
-0.000295351
-0.000296566
-0.000297584
-0.000298483
-0.000299251
-0.00029992
-0.000300485
-0.000300995
-0.000301414
-0.000301782
-0.00030209
-0.000302367
-0.000302584
-0.00030279
-0.000302949
-0.000303098
-0.000303206
-0.000303319
-0.000303396
-0.000303472
-0.000303526
-0.000303587
-0.00030362
-0.000303664
-0.000303688
-0.000303722
-0.00030373
-0.00030376
-0.000303766
-0.000303786
-0.000303786
-0.000303803
-0.000303801
-0.000303815
-0.00030381
-0.000303824
-0.000303819
-0.000303833
-0.000303827
-0.000303839
-0.000303833
-0.000303843
-0.000303834
-0.000303843
-0.000303835
-0.000303843
-0.000303833
-0.000303843
-0.000303834
-0.000303841
-0.000303832
-0.000303838
-0.000303828
-0.000303829
-0.000303817
-0.000303817
-0.000303798
-0.000303789
-0.000303762
-0.000303739
-0.000303691
-0.000303633
-0.000303542
-0.000303421
-0.00030324
-0.000302994
-0.000302651
-0.000302199
-0.000301644
-0.000301026
-0.000300674
-0.000300891
-0.000301453
-0.000293345
-0.000239575
-7.34783e-05
-0.000219216
0.13591
0.0244356
0.00334373
0.000823906
0.000101997
0.000607135
0.000612943
0.000676649
0.000628462
0.000604414
0.000569892
0.000546197
0.000524471
0.000507832
0.000494557
0.000484046
0.000475395
0.000468332
0.000462484
0.000457594
0.000453406
0.000449879
0.000446852
0.00044424
0.000441971
0.00044006
0.000438384
0.000436943
0.000435669
0.000434592
0.00043362
0.000432806
0.000432094
0.000431497
0.000430957
0.000430524
0.000430121
0.000429801
0.000429506
0.000429283
0.00042906
0.000428898
0.000428743
0.000428633
0.000428509
0.000428437
0.000428348
0.000428296
0.000428226
0.000428203
0.000428148
0.000428126
0.000428087
0.000428087
0.000428055
0.000428053
0.000428028
0.000428034
0.000428006
0.00042801
0.000427981
0.000427988
0.000427965
0.000427972
0.000427954
0.000427968
0.000427955
0.000427968
0.000427954
0.000427972
0.000427956
0.000427969
0.00042796
0.000427975
0.000427967
0.000427983
0.000427984
0.000428008
0.000428009
0.000428043
0.000428062
0.000428112
0.00042816
0.000428248
0.000428362
0.000428536
0.000428768
0.000429115
0.000429588
0.000430249
0.000431129
0.000432227
0.000433536
0.000434532
0.000435194
0.000436351
0.000458773
0.000569042
0.000943041
0.00117797
0.123303
0.0286626
0.00469221
0.000700127
-0.000186186
0.000441768
0.000479893
0.00056176
0.000499896
0.000464509
0.000416439
0.000382233
0.000351155
0.000326847
0.000307911
0.000293052
0.000280859
0.000270916
0.000262687
0.000255808
0.000249922
0.000244947
0.000240672
0.000236979
0.000233764
0.000231031
0.000228634
0.000226566
0.00022474
0.000223197
0.000221812
0.00022064
0.000219612
0.000218745
0.000217961
0.000217325
0.000216735
0.000216258
0.000215821
0.000215484
0.000215154
0.000214907
0.000214674
0.000214507
0.000214323
0.000214208
0.000214073
0.00021399
0.000213884
0.00021384
0.000213761
0.000213723
0.000213662
0.000213658
0.000213615
0.000213607
0.000213571
0.000213574
0.000213533
0.000213533
0.000213488
0.000213492
0.000213457
0.000213463
0.000213438
0.000213455
0.000213439
0.000213455
0.000213437
0.000213461
0.000213442
0.000213456
0.000213446
0.000213467
0.000213459
0.00021348
0.000213484
0.000213518
0.000213523
0.000213571
0.0002136
0.000213672
0.000213745
0.000213871
0.000214039
0.000214293
0.000214631
0.000215132
0.000215822
0.000216784
0.000218082
0.000219722
0.000221793
0.000223667
0.000226073
0.000230502
0.000271506
0.000444076
0.00104958
0.00176922
0.109984
0.0309705
0.00569802
0.000547508
-0.000407888
0.000296731
0.000368675
0.000461707
0.000390586
0.000345786
0.000287376
0.000244975
0.000206881
0.000176992
0.000153506
0.000135013
0.000119841
0.000107464
9.72125e-05
8.86231e-05
8.12593e-05
7.49981e-05
6.95868e-05
6.48837e-05
6.07522e-05
5.71838e-05
5.40168e-05
5.12465e-05
4.88943e-05
4.69548e-05
4.52237e-05
4.37465e-05
4.24447e-05
4.13445e-05
4.03489e-05
3.95316e-05
3.87752e-05
3.81562e-05
3.7591e-05
3.71467e-05
3.67178e-05
3.63927e-05
3.60845e-05
3.5862e-05
3.56216e-05
3.54629e-05
3.52828e-05
3.51683e-05
3.50296e-05
3.49627e-05
3.48617e-05
3.48087e-05
3.47258e-05
3.47161e-05
3.46643e-05
3.46502e-05
3.46028e-05
3.46023e-05
3.45483e-05
3.45414e-05
3.44818e-05
3.44786e-05
3.44323e-05
3.44341e-05
3.44036e-05
3.44204e-05
3.44042e-05
3.44223e-05
3.44017e-05
3.44297e-05
3.44086e-05
3.44242e-05
3.44131e-05
3.44397e-05
3.44324e-05
3.44589e-05
3.44662e-05
3.45094e-05
3.45186e-05
3.45762e-05
3.46157e-05
3.47048e-05
3.47995e-05
3.49581e-05
3.51719e-05
3.54943e-05
3.59258e-05
3.65566e-05
3.74294e-05
3.86461e-05
4.03051e-05
4.2432e-05
4.52578e-05
4.81701e-05
5.31854e-05
6.2312e-05
0.000123561
0.000349194
0.00116813
0.00229696
0.098308
0.032197
0.00652343
0.000502596
-0.000472405
0.000276582
0.000379861
0.000478612
0.000402476
0.0003511
0.00028632
0.00023898
0.000197186
0.000164714
0.000137992
0.000116736
9.93041e-05
8.50989e-05
7.33435e-05
6.34957e-05
5.50639e-05
4.78881e-05
4.16811e-05
3.62941e-05
3.15634e-05
2.74612e-05
2.38218e-05
2.06441e-05
1.7924e-05
1.5663e-05
1.36503e-05
1.19247e-05
1.03915e-05
9.0929e-06
7.91649e-06
6.94008e-06
6.03437e-06
5.28518e-06
4.5979e-06
4.04892e-06
3.52064e-06
3.11432e-06
2.72395e-06
2.43763e-06
2.13001e-06
1.91879e-06
1.68743e-06
1.54497e-06
1.37798e-06
1.28881e-06
1.16707e-06
1.10171e-06
9.98273e-07
9.82221e-07
9.23793e-07
9.05267e-07
8.46949e-07
8.41955e-07
7.75906e-07
7.60613e-07
6.86447e-07
6.74624e-07
6.15974e-07
6.13332e-07
5.76677e-07
5.93442e-07
5.76102e-07
5.9734e-07
5.74134e-07
6.04907e-07
5.83704e-07
6.00728e-07
5.88607e-07
6.2118e-07
6.15466e-07
6.47232e-07
6.57465e-07
7.08114e-07
7.21154e-07
7.86427e-07
8.33196e-07
9.36594e-07
1.04893e-06
1.2347e-06
1.48425e-06
1.86498e-06
2.40111e-06
3.16794e-06
4.21345e-06
5.65642e-06
7.63289e-06
1.01978e-05
1.37584e-05
1.77895e-05
2.54925e-05
3.93221e-05
0.000119307
0.000383872
0.00139849
0.00284676
0.0877045
0.0325103
0.00711505
0.000479368
-0.000484955
0.000282296
0.000415392
0.000517824
0.000438926
0.000382403
0.000312605
0.00026099
0.000215654
0.000180356
0.000151238
0.000128068
0.000109091
9.36587e-05
8.09168e-05
7.02624e-05
6.11741e-05
5.34625e-05
4.68099e-05
4.10749e-05
3.60745e-05
3.17574e-05
2.79606e-05
2.46875e-05
2.17668e-05
1.92625e-05
1.70342e-05
1.51195e-05
1.34024e-05
1.19443e-05
1.0622e-05
9.51445e-06
8.48205e-06
7.62077e-06
6.82473e-06
6.17998e-06
5.5594e-06
5.07673e-06
4.60564e-06
4.25408e-06
3.8805e-06
3.63359e-06
3.36569e-06
3.1979e-06
3.00487e-06
2.89533e-06
2.75521e-06
2.68152e-06
2.56039e-06
2.53776e-06
2.47452e-06
2.45397e-06
2.38572e-06
2.37573e-06
2.29909e-06
2.27467e-06
2.18682e-06
2.16556e-06
2.09405e-06
2.08662e-06
2.04345e-06
2.0602e-06
2.04119e-06
2.06608e-06
2.04099e-06
2.07351e-06
2.05292e-06
2.07261e-06
2.05918e-06
2.09798e-06
2.09441e-06
2.13156e-06
2.14411e-06
2.20076e-06
2.21681e-06
2.28756e-06
2.33908e-06
2.45328e-06
2.5788e-06
2.78632e-06
3.06205e-06
3.488e-06
4.09205e-06
4.98959e-06
6.18969e-06
7.82616e-06
1.00718e-05
1.302e-05
1.72684e-05
2.24228e-05
3.26197e-05
5.06616e-05
0.000147049
0.000446115
0.00162564
0.00331286
0.0779998
0.0320577
0.00745947
0.00044412
-0.000488772
0.000278264
0.000437845
0.000541804
0.000462441
0.00040254
0.000329644
0.00027511
0.000227278
0.000189869
0.000159182
0.000134792
0.000114824
9.86005e-05
8.52131e-05
7.40159e-05
6.44751e-05
5.63844e-05
4.93938e-05
4.33782e-05
3.81399e-05
3.36063e-05
2.96118e-05
2.61787e-05
2.30951e-05
2.04271e-05
1.80543e-05
1.60179e-05
1.41765e-05
1.26098e-05
1.11901e-05
9.99596e-06
8.87851e-06
7.94425e-06
7.07769e-06
6.37208e-06
5.69708e-06
5.17389e-06
4.66119e-06
4.27786e-06
3.87584e-06
3.6063e-06
3.30798e-06
3.10965e-06
2.88272e-06
2.75555e-06
2.59922e-06
2.5212e-06
2.38591e-06
2.35693e-06
2.28953e-06
2.2694e-06
2.19219e-06
2.17713e-06
2.09061e-06
2.05648e-06
1.95541e-06
1.92485e-06
1.84036e-06
1.82813e-06
1.77798e-06
1.79501e-06
1.77347e-06
1.80245e-06
1.77638e-06
1.81011e-06
1.79029e-06
1.81428e-06
1.79955e-06
1.84453e-06
1.8436e-06
1.88625e-06
1.90012e-06
1.96124e-06
1.97913e-06
2.05354e-06
2.10806e-06
2.23125e-06
2.36673e-06
2.59171e-06
2.8857e-06
3.36325e-06
3.99762e-06
4.94356e-06
6.21499e-06
7.96094e-06
1.03857e-05
1.3626e-05
1.84636e-05
2.46764e-05
3.74897e-05
5.98222e-05
0.000170614
0.000496013
0.00179843
0.00365047
0.069159
0.0310002
0.00758177
0.000400082
-0.0004876
0.000264867
0.000446072
0.000549443
0.000471708
0.000410292
0.000336396
0.000280591
0.000231701
0.000193327
0.000161937
0.000137001
0.00011659
0.000100014
8.63365e-05
7.4886e-05
6.51311e-05
5.68627e-05
4.96992e-05
4.35366e-05
3.81694e-05
3.35086e-05
2.93818e-05
2.58371e-05
2.26632e-05
1.99088e-05
1.74583e-05
1.53629e-05
1.34547e-05
1.1828e-05
1.03562e-05
9.1173e-06
7.95354e-06
6.98206e-06
6.07962e-06
5.34435e-06
4.64721e-06
4.1134e-06
3.59142e-06
3.20358e-06
2.80095e-06
2.51421e-06
2.19547e-06
1.98282e-06
1.74128e-06
1.60094e-06
1.42993e-06
1.3506e-06
1.20385e-06
1.16907e-06
1.09657e-06
1.07869e-06
9.92104e-07
9.71653e-07
8.72959e-07
8.27137e-07
7.11829e-07
6.72569e-07
5.75227e-07
5.57992e-07
5.00504e-07
5.18036e-07
4.93441e-07
5.26225e-07
5.00363e-07
5.3518e-07
5.15926e-07
5.45824e-07
5.30398e-07
5.81514e-07
5.83624e-07
6.32021e-07
6.46149e-07
7.10117e-07
7.28542e-07
8.0503e-07
8.63885e-07
9.9887e-07
1.14446e-06
1.38558e-06
1.69108e-06
2.18799e-06
2.83179e-06
3.75945e-06
5.03179e-06
6.81291e-06
9.33199e-06
1.27701e-05
1.80749e-05
2.5209e-05
4.03968e-05
6.65094e-05
0.000188506
0.000530293
0.00191141
0.00385962
0.0610855
0.0294648
0.00751076
0.000353682
-0.000479798
0.000245936
0.000442946
0.000543892
0.000469473
0.000408227
0.0003352
0.000279618
0.000230976
0.000192682
0.000161394
0.000136546
0.000116212
9.97031e-05
8.60823e-05
7.4667e-05
6.49416e-05
5.67075e-05
4.95562e-05
4.34049e-05
3.80475e-05
3.33851e-05
2.9236e-05
2.56736e-05
2.24912e-05
1.97206e-05
1.72497e-05
1.51466e-05
1.32192e-05
1.15706e-05
1.00791e-05
8.82411e-06
7.63768e-06
6.64823e-06
5.72529e-06
4.97129e-06
4.25889e-06
3.71877e-06
3.18892e-06
2.79568e-06
2.39061e-06
2.10325e-06
1.78564e-06
1.57813e-06
1.34468e-06
1.19852e-06
1.01816e-06
9.42008e-07
7.91142e-07
7.53723e-07
6.784e-07
6.65283e-07
5.74445e-07
5.50194e-07
4.45824e-07
3.92643e-07
2.66566e-07
2.19476e-07
1.0909e-07
8.57499e-08
2.1135e-08
3.8764e-08
1.17009e-08
4.66865e-08
2.26351e-08
5.83864e-08
3.95787e-08
7.64758e-08
6.15514e-08
1.19727e-07
1.25253e-07
1.79979e-07
1.93521e-07
2.58702e-07
2.76314e-07
3.53112e-07
4.10511e-07
5.48047e-07
6.95816e-07
9.43779e-07
1.24908e-06
1.7243e-06
2.34856e-06
3.26061e-06
4.52369e-06
6.31296e-06
8.87683e-06
1.24378e-05
1.80833e-05
2.59505e-05
4.30421e-05
7.20597e-05
0.000201426
0.000549931
0.00196689
0.00394851
0.0536587
0.0275451
0.00727035
0.000307992
-0.00046503
0.000223333
0.000429685
0.000526589
0.000456798
0.000397207
0.000326664
0.000272613
0.000225345
0.000188032
0.000157571
0.000133389
0.000113602
9.75423e-05
8.42919e-05
7.31747e-05
6.37002e-05
5.56922e-05
4.87232e-05
4.27278e-05
3.75062e-05
3.29566e-05
2.8887e-05
2.5393e-05
2.22773e-05
1.95574e-05
1.71216e-05
1.50586e-05
1.31579e-05
1.15253e-05
1.00459e-05
8.80317e-06
7.61846e-06
6.63104e-06
5.70438e-06
4.94439e-06
4.22512e-06
3.68462e-06
3.15025e-06
2.75355e-06
2.34453e-06
2.05859e-06
1.74058e-06
1.5356e-06
1.3052e-06
1.1598e-06
9.76182e-07
9.07235e-07
7.59802e-07
7.2366e-07
6.48283e-07
6.41955e-07
5.5274e-07
5.26934e-07
4.23853e-07
3.68645e-07
2.36148e-07
1.82403e-07
6.17444e-08
3.30733e-08
-3.89833e-08
-2.09418e-08
-5.12848e-08
-1.43226e-08
-3.57616e-08
1.52758e-09
-1.63332e-08
2.77204e-08
1.45742e-08
7.85387e-08
8.72853e-08
1.47591e-07
1.59818e-07
2.23934e-07
2.39349e-07
3.14406e-07
3.64469e-07
4.94512e-07
6.36202e-07
8.81177e-07
1.17711e-06
1.63977e-06
2.24856e-06
3.14647e-06
4.38906e-06
6.15862e-06
8.71645e-06
1.23188e-05
1.81576e-05
2.65201e-05
4.49273e-05
7.58225e-05
0.000208512
0.000554622
0.00196671
0.00392518
0.0467714
0.0253138
0.00688135
0.000264443
-0.000443193
0.000198373
0.000407226
0.000498595
0.000434445
0.000377819
0.000311169
0.000259807
0.000214909
0.000179381
0.000150397
0.000127398
0.000108581
9.33121e-05
8.07131e-05
7.01294e-05
6.11041e-05
5.34919e-05
4.68572e-05
4.11467e-05
3.61719e-05
3.18354e-05
2.79355e-05
2.45859e-05
2.1605e-05
1.90001e-05
1.6654e-05
1.46775e-05
1.28487e-05
1.12711e-05
9.83792e-06
8.63782e-06
7.48295e-06
6.52172e-06
5.61363e-06
4.86668e-06
4.15625e-06
3.6285e-06
3.10188e-06
2.71264e-06
2.30854e-06
2.0305e-06
1.71649e-06
1.51744e-06
1.29215e-06
1.15236e-06
9.68716e-07
9.08419e-07
7.67099e-07
7.34733e-07
6.59165e-07
6.60023e-07
5.73136e-07
5.4707e-07
4.43227e-07
3.8593e-07
2.47546e-07
1.88057e-07
6.06783e-08
2.7652e-08
-5.20062e-08
-3.34519e-08
-6.77053e-08
-2.88774e-08
-4.73263e-08
-6.81738e-09
-2.34852e-08
2.72967e-08
1.79409e-08
8.54788e-08
9.69314e-08
1.61556e-07
1.72142e-07
2.32754e-07
2.44662e-07
3.1622e-07
3.60966e-07
4.85844e-07
6.21878e-07
8.62478e-07
1.14596e-06
1.59351e-06
2.17874e-06
3.04413e-06
4.23941e-06
5.94886e-06
8.43994e-06
1.19909e-05
1.78548e-05
2.64364e-05
4.54944e-05
7.71604e-05
0.000209094
0.000544202
0.00191347
0.00379823
0.0403343
0.02283
0.00636285
0.000223817
-0.000414061
0.000172309
0.000376712
0.000461148
0.000403406
0.000350891
0.000289359
0.000241709
0.000200066
0.000167038
0.000140111
0.000118757
0.000101284
8.71098e-05
7.54118e-05
6.5572e-05
5.71732e-05
5.01072e-05
4.39429e-05
3.86338e-05
3.40055e-05
2.99714e-05
2.63231e-05
2.31876e-05
2.04032e-05
1.79723e-05
1.57679e-05
1.39205e-05
1.22056e-05
1.07205e-05
9.36617e-06
8.23782e-06
7.14044e-06
6.22923e-06
5.36217e-06
4.64811e-06
3.96323e-06
3.46221e-06
2.957e-06
2.5875e-06
2.19943e-06
1.93828e-06
1.63651e-06
1.45026e-06
1.23687e-06
1.10828e-06
9.29135e-07
8.79152e-07
7.47384e-07
7.21735e-07
6.47339e-07
6.55743e-07
5.73031e-07
5.48847e-07
4.44777e-07
3.87087e-07
2.4499e-07
1.80339e-07
4.77355e-08
1.00308e-08
-7.69415e-08
-5.92162e-08
-9.5856e-08
-5.70787e-08
-7.17849e-08
-2.68413e-08
-4.19192e-08
1.54025e-08
1.22385e-08
8.29617e-08
9.67313e-08
1.65067e-07
1.74257e-07
2.29492e-07
2.36729e-07
3.03266e-07
3.42564e-07
4.61219e-07
5.89591e-07
8.22271e-07
1.08872e-06
1.5108e-06
2.05864e-06
2.86988e-06
3.9895e-06
5.59754e-06
7.96061e-06
1.13651e-05
1.7077e-05
2.55802e-05
4.45815e-05
7.58785e-05
0.00020307
0.000519145
0.00181092
0.00357719
0.0342714
0.0201421
0.00573264
0.000186408
-0.000377532
0.000146177
0.000339342
0.000415535
0.000364768
0.00031735
0.000261989
0.000218943
0.000181324
0.000151423
0.000127062
0.000107757
9.19581e-05
7.9146e-05
6.85684e-05
5.96578e-05
5.2043e-05
4.56553e-05
4.00819e-05
3.52783e-05
3.10855e-05
2.74332e-05
2.41102e-05
2.12525e-05
1.87201e-05
1.65159e-05
1.4501e-05
1.28214e-05
1.12576e-05
9.89905e-06
8.65375e-06
7.62352e-06
6.6091e-06
5.76961e-06
4.96405e-06
4.3014e-06
3.65753e-06
3.19576e-06
2.72425e-06
2.38539e-06
2.02348e-06
1.78783e-06
1.50633e-06
1.33911e-06
1.14414e-06
1.03229e-06
8.62907e-07
8.24978e-07
7.06292e-07
6.90328e-07
6.19499e-07
6.35763e-07
5.59525e-07
5.39539e-07
4.37164e-07
3.81373e-07
2.38788e-07
1.69847e-07
3.40165e-08
-7.66741e-09
-1.01825e-07
-8.62864e-08
-1.24203e-07
-8.6733e-08
-9.74646e-08
-4.76349e-08
-5.97122e-08
3.75232e-09
7.97299e-09
8.1976e-08
9.75596e-08
1.68306e-07
1.76475e-07
2.24748e-07
2.26091e-07
2.86081e-07
3.18813e-07
4.28789e-07
5.46214e-07
7.66364e-07
1.01078e-06
1.39771e-06
1.89575e-06
2.63429e-06
3.65337e-06
5.12243e-06
7.29977e-06
1.04656e-05
1.58482e-05
2.39705e-05
4.21995e-05
7.20025e-05
0.000190678
0.000480371
0.00166362
0.00327228
0.0285162
0.0172904
0.00500742
0.000152126
-0.000333796
0.000120705
0.000296242
0.000362989
0.0003196
0.000278115
0.000229814
0.000192134
0.000159196
0.000132963
0.000111607
9.47017e-05
8.08595e-05
6.964e-05
6.0372e-05
5.2551e-05
4.58574e-05
4.02625e-05
3.5384e-05
3.11773e-05
2.74983e-05
2.42966e-05
2.13637e-05
1.88407e-05
1.66091e-05
1.46778e-05
1.28952e-05
1.1418e-05
1.00376e-05
8.83613e-06
7.72698e-06
6.81838e-06
5.9099e-06
5.16159e-06
4.43573e-06
3.84137e-06
3.25273e-06
2.8413e-06
2.41459e-06
2.11583e-06
1.78904e-06
1.58654e-06
1.33247e-06
1.18941e-06
1.01821e-06
9.28206e-07
7.7383e-07
7.49511e-07
6.46737e-07
6.42895e-07
5.7824e-07
6.0251e-07
5.34642e-07
5.21147e-07
4.22342e-07
3.70467e-07
2.30688e-07
1.58726e-07
2.16315e-08
-2.35886e-08
-1.23805e-07
-1.11662e-07
-1.5014e-07
-1.14565e-07
-1.21562e-07
-6.64729e-08
-7.4145e-08
-5.39602e-09
6.53336e-09
8.4515e-08
1.01491e-07
1.72921e-07
1.80325e-07
2.20568e-07
2.14756e-07
2.66774e-07
2.91859e-07
3.91319e-07
4.94718e-07
6.98053e-07
9.15959e-07
1.26004e-06
1.69786e-06
2.34792e-06
3.24476e-06
4.54132e-06
6.47956e-06
9.32012e-06
1.42027e-05
2.16504e-05
3.84167e-05
6.56609e-05
0.000172364
0.000429111
0.00147669
0.0028941
0.0230102
0.014309
0.00420301
0.000120636
-0.000283355
9.63227e-05
0.000248459
0.00030468
0.000268949
0.000234088
0.00019358
0.000161905
0.000134197
0.000112084
9.41035e-05
7.98927e-05
6.82457e-05
5.88128e-05
5.10139e-05
4.44179e-05
3.87624e-05
3.40574e-05
2.99609e-05
2.64291e-05
2.3331e-05
2.06384e-05
1.81506e-05
1.60119e-05
1.41231e-05
1.25037e-05
1.09909e-05
9.74643e-06
8.5768e-06
7.55871e-06
6.60959e-06
5.84306e-06
5.06085e-06
4.42083e-06
3.7904e-06
3.27933e-06
2.75892e-06
2.40756e-06
2.03562e-06
1.78516e-06
1.50129e-06
1.33862e-06
1.11853e-06
1.0039e-06
8.60781e-07
7.9707e-07
6.62678e-07
6.53434e-07
5.68625e-07
5.78804e-07
5.22835e-07
5.55173e-07
4.96993e-07
4.92056e-07
3.98532e-07
3.52224e-07
2.1823e-07
1.44988e-07
8.37436e-09
-3.9934e-08
-1.44749e-07
-1.37007e-07
-1.75659e-07
-1.42093e-07
-1.45873e-07
-8.51714e-08
-8.73534e-08
-1.39107e-08
5.67431e-09
8.80149e-08
1.06111e-07
1.76394e-07
1.82962e-07
2.1474e-07
2.00609e-07
2.43411e-07
2.59834e-07
3.47694e-07
4.34415e-07
6.17144e-07
8.04544e-07
1.09954e-06
1.46815e-06
2.0162e-06
2.77187e-06
3.86676e-06
5.51774e-06
7.95444e-06
1.21799e-05
1.86807e-05
3.33485e-05
5.70682e-05
0.000148746
0.000366846
0.00125564
0.00245354
0.0177008
0.0112272
0.00333457
9.14715e-05
-0.000226997
7.3201e-05
0.00019696
0.000241726
0.00021384
0.000186154
0.000154027
0.000128875
0.000106843
8.9218e-05
7.49144e-05
6.36388e-05
5.43811e-05
4.6893e-05
4.06931e-05
3.54327e-05
3.09113e-05
2.71763e-05
2.39324e-05
2.11396e-05
1.86781e-05
1.65424e-05
1.45451e-05
1.2832e-05
1.1321e-05
1.00455e-05
8.83368e-06
7.84782e-06
6.9111e-06
6.09833e-06
5.32937e-06
4.7221e-06
4.08342e-06
3.56633e-06
3.04434e-06
2.62928e-06
2.18862e-06
1.90556e-06
1.59703e-06
1.4018e-06
1.16728e-06
1.04988e-06
8.69624e-07
7.87133e-07
6.75301e-07
6.41528e-07
5.31655e-07
5.38976e-07
4.73455e-07
4.98999e-07
4.54e-07
4.94438e-07
4.46759e-07
4.52112e-07
3.65515e-07
3.26178e-07
2.00397e-07
1.28059e-07
-6.54458e-09
-5.71227e-08
-1.65295e-07
-1.62626e-07
-2.01402e-07
-1.69622e-07
-1.70848e-07
-1.04354e-07
-1.00344e-07
-2.23272e-08
4.39672e-09
9.11393e-08
1.10217e-07
1.77718e-07
1.82909e-07
2.06333e-07
1.82984e-07
2.15544e-07
2.22219e-07
2.97861e-07
3.65741e-07
5.24508e-07
6.7777e-07
9.18712e-07
1.21049e-06
1.64536e-06
2.24381e-06
3.11284e-06
4.43486e-06
6.39964e-06
9.83017e-06
1.51451e-05
2.71588e-05
4.65196e-05
0.00012059
0.000295278
0.00100631
0.00196171
0.0125399
0.00807058
0.0024168
6.41151e-05
-0.000165763
5.1295e-05
0.000142649
0.000175203
0.000155282
0.000135194
0.000111895
9.3667e-05
7.76544e-05
6.48021e-05
5.44088e-05
4.62556e-05
3.95376e-05
3.41165e-05
2.96163e-05
2.57775e-05
2.24651e-05
1.97634e-05
1.7426e-05
1.54219e-05
1.36409e-05
1.20993e-05
1.06276e-05
9.37336e-06
8.26786e-06
7.36075e-06
6.47459e-06
5.76834e-06
5.08156e-06
4.49128e-06
3.91854e-06
3.48418e-06
3.00294e-06
2.62081e-06
2.21735e-06
1.90834e-06
1.55722e-06
1.34907e-06
1.11096e-06
9.76595e-07
7.96319e-07
7.28151e-07
5.92625e-07
5.45505e-07
4.67044e-07
4.65838e-07
3.84356e-07
4.09816e-07
3.64235e-07
4.05918e-07
3.73811e-07
4.22358e-07
3.85545e-07
4.0244e-07
3.24336e-07
2.93226e-07
1.77373e-07
1.08388e-07
-2.28138e-08
-7.47393e-08
-1.85076e-07
-1.87734e-07
-2.26854e-07
-1.96462e-07
-1.95814e-07
-1.23573e-07
-1.13096e-07
-3.03661e-08
2.60738e-09
9.3517e-08
1.13535e-07
1.7701e-07
1.79861e-07
1.95383e-07
1.62329e-07
1.83891e-07
1.79676e-07
2.42724e-07
2.9019e-07
4.22119e-07
5.37992e-07
7.21148e-07
9.30044e-07
1.24307e-06
1.67142e-06
2.29581e-06
3.25494e-06
4.69242e-06
7.21511e-06
1.1148e-05
2.00531e-05
3.43785e-05
8.87813e-05
0.000216291
0.000734769
0.00142986
0.00748294
0.00486234
0.00146402
3.80355e-05
-0.000100894
3.03861e-05
8.63706e-05
0.000106156
9.42716e-05
8.20772e-05
6.79217e-05
5.69027e-05
4.71547e-05
3.92771e-05
3.29602e-05
2.80628e-05
2.3992e-05
2.07244e-05
1.79958e-05
1.56398e-05
1.35902e-05
1.19677e-05
1.05747e-05
9.39447e-06
8.32587e-06
7.40478e-06
6.48382e-06
5.71263e-06
5.03296e-06
4.51129e-06
3.96843e-06
3.55749e-06
3.13259e-06
2.77699e-06
2.41222e-06
2.16067e-06
1.8471e-06
1.60917e-06
1.33147e-06
1.13557e-06
8.81775e-07
7.53482e-07
5.90886e-07
5.21681e-07
3.99055e-07
3.82424e-07
2.95269e-07
2.8629e-07
2.4228e-07
2.75092e-07
2.24961e-07
2.70182e-07
2.44616e-07
3.0259e-07
2.84829e-07
3.41459e-07
3.15505e-07
3.44614e-07
2.76413e-07
2.54701e-07
1.49762e-07
8.65514e-08
-3.98879e-08
-9.22253e-08
-2.03566e-07
-2.1139e-07
-2.51209e-07
-2.21788e-07
-2.19893e-07
-1.42153e-07
-1.2537e-07
-3.7765e-08
4.2583e-10
9.4951e-08
1.1587e-07
1.74576e-07
1.73887e-07
1.82041e-07
1.39294e-07
1.49423e-07
1.33227e-07
1.83352e-07
2.09504e-07
3.12287e-07
3.88001e-07
5.10796e-07
6.32496e-07
8.17622e-07
1.06634e-06
1.43303e-06
2.00421e-06
2.87348e-06
4.40456e-06
6.81002e-06
1.22702e-05
2.10616e-05
5.42996e-05
0.000131907
0.000447241
0.000869366
0.00248739
0.00162382
0.000490327
1.27088e-05
-3.37812e-05
1.01292e-05
2.89264e-05
3.56025e-05
3.17945e-05
2.76699e-05
2.28414e-05
1.92031e-05
1.58681e-05
1.3086e-05
1.09449e-05
9.38342e-06
8.02426e-06
6.96172e-06
6.04746e-06
5.21116e-06
4.45666e-06
3.94229e-06
3.51541e-06
3.17962e-06
2.84261e-06
2.55775e-06
2.2023e-06
1.92935e-06
1.68832e-06
1.56154e-06
1.37243e-06
1.26688e-06
1.1107e-06
9.96924e-07
8.47397e-07
7.84659e-07
6.45122e-07
5.57644e-07
4.10138e-07
3.31293e-07
1.80299e-07
1.35112e-07
5.10269e-08
4.98312e-08
-1.31012e-08
2.2412e-08
-1.42545e-08
1.7123e-08
7.8651e-09
7.49037e-08
5.79439e-08
1.24462e-07
1.18571e-07
1.92325e-07
1.89825e-07
2.54444e-07
2.39081e-07
2.80425e-07
2.23278e-07
2.12067e-07
1.18414e-07
6.30627e-08
-5.72247e-08
-1.09016e-07
-2.20276e-07
-2.32781e-07
-2.73627e-07
-2.44877e-07
-2.42246e-07
-1.59472e-07
-1.36882e-07
-4.44395e-08
-2.00437e-09
9.52518e-08
1.16944e-07
1.70615e-07
1.65239e-07
1.66427e-07
1.14485e-07
1.1312e-07
8.40556e-08
1.20814e-07
1.25416e-07
1.97393e-07
2.30802e-07
2.91717e-07
3.23712e-07
3.77569e-07
4.4068e-07
5.42404e-07
7.10334e-07
9.86274e-07
1.4743e-06
2.26305e-06
4.07222e-06
7.02427e-06
1.81888e-05
4.4245e-05
0.00015008
0.000291652
-0.00248782
-0.00162468
-0.000490331
-1.23779e-05
3.40935e-05
-9.89775e-06
-2.8907e-05
-3.54548e-05
-3.117e-05
-2.71675e-05
-2.26111e-05
-1.88106e-05
-1.56807e-05
-1.33266e-05
-1.1259e-05
-9.45789e-06
-8.0835e-06
-6.92469e-06
-6.01043e-06
-5.31437e-06
-4.7629e-06
-4.15826e-06
-3.61278e-06
-3.09824e-06
-2.6971e-06
-2.34099e-06
-2.1263e-06
-1.89521e-06
-1.69243e-06
-1.4224e-06
-1.25462e-06
-1.0507e-06
-9.36293e-07
-8.06237e-07
-7.3782e-07
-6.09708e-07
-5.72893e-07
-5.06844e-07
-5.22387e-07
-4.8339e-07
-5.28658e-07
-4.89168e-07
-4.93946e-07
-4.25913e-07
-4.28333e-07
-3.41637e-07
-3.27417e-07
-2.54246e-07
-2.29008e-07
-1.28723e-07
-1.11977e-07
-2.29594e-08
-9.75348e-09
7.86342e-08
9.16986e-08
1.64115e-07
1.58934e-07
2.1188e-07
1.66559e-07
1.66827e-07
8.44436e-08
3.84398e-08
-7.43022e-08
-1.24538e-07
-2.34714e-07
-2.51216e-07
-2.93252e-07
-2.65068e-07
-2.62079e-07
-1.74982e-07
-1.47279e-07
-5.04092e-08
-4.54644e-09
9.42949e-08
1.16487e-07
1.65197e-07
1.54332e-07
1.48729e-07
8.84746e-08
7.59407e-08
3.34933e-08
5.62422e-08
3.96357e-08
7.98449e-08
6.95738e-08
6.80717e-08
9.69064e-09
-6.83928e-08
-1.93119e-07
-3.57886e-07
-5.98206e-07
-9.24078e-07
-1.49623e-06
-2.3539e-06
-4.2645e-06
-7.25521e-06
-1.84682e-05
-4.45141e-05
-0.000150299
-0.000291806
-0.00748336
-0.00486315
-0.00146405
-3.77313e-05
0.000101217
-3.01432e-05
-8.63619e-05
-0.000106017
-9.36455e-05
-8.15755e-05
-6.77009e-05
-5.65173e-05
-4.69666e-05
-3.95156e-05
-3.32729e-05
-2.81358e-05
-2.40487e-05
-2.06871e-05
-1.79589e-05
-1.57421e-05
-1.3895e-05
-1.21786e-05
-1.06701e-05
-9.31382e-06
-8.1808e-06
-7.18995e-06
-6.41065e-06
-5.6792e-06
-5.03517e-06
-4.37381e-06
-3.8533e-06
-3.34211e-06
-2.96017e-06
-2.58937e-06
-2.30491e-06
-1.98791e-06
-1.77647e-06
-1.55725e-06
-1.44163e-06
-1.28699e-06
-1.22639e-06
-1.10237e-06
-1.0292e-06
-8.92544e-07
-8.34778e-07
-6.99197e-07
-6.35478e-07
-5.20136e-07
-4.61073e-07
-3.29554e-07
-2.79902e-07
-1.67803e-07
-1.36199e-07
-3.48556e-08
-6.5886e-09
7.32821e-08
7.78416e-08
1.41179e-07
1.07976e-07
1.20439e-07
4.91651e-08
1.32732e-08
-9.06349e-08
-1.38248e-07
-2.46382e-07
-2.66117e-07
-3.09266e-07
-2.81756e-07
-2.78647e-07
-1.88217e-07
-1.56154e-07
-5.57266e-08
-7.10901e-09
9.20371e-08
1.14302e-07
1.58274e-07
1.4167e-07
1.29269e-07
6.18138e-08
3.87954e-08
-1.70336e-08
-9.10942e-09
-4.61506e-08
-3.79555e-08
-9.23799e-08
-1.55877e-07
-3.03488e-07
-5.11524e-07
-8.22406e-07
-1.24956e-06
-1.89266e-06
-2.81186e-06
-4.42634e-06
-6.89946e-06
-1.2459e-05
-2.12905e-05
-5.45756e-05
-0.000132172
-0.000447458
-0.000869519
-0.0125404
-0.00807128
-0.00241686
-6.38608e-05
0.000166105
-5.1031e-05
-0.000142661
-0.000175079
-0.000154654
-0.000134694
-0.000111692
-9.32955e-05
-7.74655e-05
-6.50365e-05
-5.47185e-05
-4.63258e-05
-3.95896e-05
-3.40785e-05
-2.95797e-05
-2.5878e-05
-2.27666e-05
-1.99645e-05
-1.75177e-05
-1.53425e-05
-1.34967e-05
-1.18883e-05
-1.05599e-05
-9.34132e-06
-8.26652e-06
-7.22642e-06
-6.36452e-06
-5.55472e-06
-4.91318e-06
-4.3097e-06
-3.81568e-06
-3.31575e-06
-2.93538e-06
-2.56692e-06
-2.32351e-06
-2.05815e-06
-1.89442e-06
-1.68779e-06
-1.54004e-06
-1.33735e-06
-1.2209e-06
-1.03977e-06
-9.29644e-07
-7.73091e-07
-6.81261e-07
-5.21347e-07
-4.40844e-07
-3.05978e-07
-2.56783e-07
-1.4451e-07
-1.02094e-07
-1.53183e-08
-1.44951e-09
7.06515e-08
4.932e-08
7.42573e-08
1.39691e-08
-1.17252e-08
-1.05784e-07
-1.49666e-07
-2.54816e-07
-2.77014e-07
-3.20951e-07
-2.94401e-07
-2.91285e-07
-1.98794e-07
-1.63105e-07
-6.04165e-08
-9.67548e-09
8.84943e-08
1.10309e-07
1.49723e-07
1.27735e-07
1.08519e-07
3.50406e-08
2.51243e-09
-6.60987e-08
-7.38554e-08
-1.30279e-07
-1.53641e-07
-2.517e-07
-3.75795e-07
-6.09708e-07
-9.43141e-07
-1.43452e-06
-2.1145e-06
-3.1446e-06
-4.63193e-06
-7.23653e-06
-1.12346e-05
-2.02353e-05
-3.4603e-05
-8.90505e-05
-0.000216548
-0.000734982
-0.00143001
-0.0177012
-0.0112277
-0.00333468
-9.12838e-05
0.000227363
-7.29096e-05
-0.000196998
-0.000241622
-0.000213211
-0.000185659
-0.000153848
-0.000128523
-0.000106654
-8.94464e-05
-7.52194e-05
-6.37051e-05
-5.44268e-05
-4.68542e-05
-4.06568e-05
-3.55304e-05
-3.1207e-05
-2.73637e-05
-2.40191e-05
-2.10619e-05
-1.85351e-05
-1.63372e-05
-1.44852e-05
-1.28019e-05
-1.13149e-05
-9.91554e-06
-8.73047e-06
-7.63723e-06
-6.74892e-06
-5.92559e-06
-5.23302e-06
-4.55998e-06
-4.02024e-06
-3.51009e-06
-3.14486e-06
-2.77615e-06
-2.51492e-06
-2.22945e-06
-2.01226e-06
-1.74816e-06
-1.57579e-06
-1.35323e-06
-1.20126e-06
-1.00599e-06
-8.82926e-07
-6.98073e-07
-5.89855e-07
-4.33614e-07
-3.67838e-07
-2.46796e-07
-1.91942e-07
-9.90767e-08
-7.63355e-08
2.67889e-09
-7.5544e-09
2.95361e-08
-1.97963e-08
-3.57282e-08
-1.19333e-07
-1.58392e-07
-2.59616e-07
-2.83524e-07
-3.27728e-07
-3.02527e-07
-2.99418e-07
-2.06384e-07
-1.6778e-07
-6.44136e-08
-1.22841e-08
8.37283e-08
1.04562e-07
1.39445e-07
1.1292e-07
8.70808e-08
8.71812e-09
-3.21524e-08
-1.12352e-07
-1.3648e-07
-2.1108e-07
-2.6488e-07
-4.05027e-07
-5.87301e-07
-9.02866e-07
-1.35468e-06
-2.01695e-06
-2.93491e-06
-4.3265e-06
-6.34081e-06
-9.85098e-06
-1.52273e-05
-2.73319e-05
-4.67371e-05
-0.000120849
-0.000295524
-0.00100652
-0.00196186
-0.0230106
-0.0143094
-0.00420316
-0.000120523
0.000283744
-9.60022e-05
-0.000248526
-0.000304599
-0.000268323
-0.000233601
-0.000193428
-0.000161577
-0.000134011
-0.000112305
-9.44018e-05
-7.9954e-05
-6.82843e-05
-5.87732e-05
-5.09782e-05
-4.45116e-05
-3.9049e-05
-3.42281e-05
-3.00416e-05
-2.63532e-05
-2.31897e-05
-2.04409e-05
-1.81004e-05
-1.59841e-05