/*--------------------------------*- C++ -*----------------------------------*\
  =========                 |
  \\      /  F ield         | OpenFOAM: The Open Source CFD Toolbox
   \\    /   O peration     | Website:  https://openfoam.org
    \\  /    A nd           | Version:  7
     \\/     M anipulation  |
\*---------------------------------------------------------------------------*/
FoamFile
{
    version     2.0;
    format      ascii;
    class       volScalarField;
    location    "2";
    object      p;
}
// * * * * * * * * * * * * * * * * * * * * * * * * * * * * * * * * * * * * * //

dimensions      [0 2 -2 0 0 0 0];

internalField   nonuniform List<scalar> 
4000
(
427.111
413.874
409.818
404.543
399.858
395.068
390.464
385.917
381.458
377.054
372.7
368.384
364.099
359.839
355.599
351.376
347.166
342.966
338.775
334.591
330.413
326.239
322.068
317.901
313.735
309.572
305.41
301.25
297.09
292.931
288.773
284.615
280.458
276.301
272.144
267.987
263.831
259.674
255.518
251.362
247.206
243.05
238.894
234.738
230.582
226.426
222.27
218.114
213.958
209.802
205.647
201.491
197.335
193.179
189.023
184.867
180.711
176.556
172.4
168.244
164.088
159.932
155.776
151.621
147.465
143.309
139.153
134.997
130.841
126.685
122.53
118.374
114.218
110.062
105.906
101.75
97.5946
93.4388
89.2829
85.1271
80.9713
76.8155
72.6597
68.504
64.3483
60.1927
56.0372
51.8819
47.7269
43.5722
39.4181
35.2648
31.1128
26.9626
22.815
18.6707
14.5308
10.3927
6.27112
2.14861
424.664
413.784
409.668
404.355
399.668
394.877
390.272
385.724
381.266
376.861
372.507
368.19
363.905
359.645
355.405
351.181
346.971
342.771
338.58
334.396
330.217
326.043
321.873
317.705
313.54
309.377
305.215
301.054
296.895
292.736
288.577
284.42
280.262
276.105
271.948
267.792
263.635
259.479
255.323
251.167
247.011
242.855
238.699
234.543
230.387
226.231
222.075
217.919
213.763
209.607
205.451
201.295
197.14
192.984
188.828
184.672
180.516
176.36
172.204
168.049
163.893
159.737
155.581
151.425
147.269
143.114
138.958
134.802
130.646
126.49
122.334
118.178
114.023
109.867
105.711
101.555
97.3993
93.2435
89.0876
84.9318
80.776
76.6202
72.4644
68.3087
64.153
59.9974
55.8419
51.6866
47.5316
43.3769
39.2228
35.0695
30.9175
26.7673
22.6197
18.4754
14.3356
10.198
6.07775
1.96698
423.382
413.781
409.621
404.276
399.589
394.793
390.189
385.64
381.181
376.776
372.421
368.104
363.819
359.558
355.318
351.095
346.884
342.685
338.494
334.309
330.131
325.957
321.786
317.618
313.453
309.29
305.128
300.967
296.808
292.649
288.491
284.333
280.175
276.018
271.861
267.705
263.548
259.392
255.236
251.08
246.924
242.768
238.612
234.456
230.3
226.144
221.988
217.832
213.676
209.52
205.364
201.209
197.053
192.897
188.741
184.585
180.429
176.273
172.118
167.962
163.806
159.65
155.494
151.338
147.182
143.027
138.871
134.715
130.559
126.403
122.247
118.092
113.936
109.78
105.624
101.468
97.3124
93.1565
89.0007
84.8449
80.6891
76.5333
72.3775
68.2218
64.0661
59.9105
55.755
51.5997
47.4446
43.2899
39.1358
34.9825
30.8305
26.6803
22.5327
18.3884
14.2488
10.1113
5.99162
1.88586
422.863
413.873
409.657
404.293
399.606
394.806
390.202
385.652
381.192
376.787
372.432
368.114
363.828
359.568
355.328
351.104
346.893
342.693
338.502
334.318
330.139
325.965
321.795
317.627
313.462
309.298
305.136
300.976
296.816
292.657
288.499
284.341
280.184
276.027
271.87
267.713
263.557
259.401
255.244
251.088
246.932
242.776
238.62
234.464
230.308
226.152
221.996
217.84
213.685
209.529
205.373
201.217
197.061
192.905
188.749
184.593
180.438
176.282
172.126
167.97
163.814
159.658
155.503
151.347
147.191
143.035
138.879
134.723
130.567
126.412
122.256
118.1
113.944
109.788
105.632
101.477
97.3208
93.1649
89.0091
84.8533
80.6975
76.5417
72.3859
68.2302
64.0745
59.9189
55.7634
51.6081
47.453
43.2983
39.1442
34.9909
30.8389
26.6886
22.541
18.3967
14.2572
10.12
5.99923
1.89066
422.524
413.983
409.722
404.34
399.65
394.845
390.241
385.69
381.231
376.824
372.469
368.151
363.866
359.605
355.365
351.141
346.93
342.73
338.539
334.355
330.176
326.002
321.831
317.663
313.498
309.335
305.173
301.012
296.853
292.694
288.535
284.378
280.22
276.063
271.906
267.75
263.593
259.437
255.281
251.125
246.968
242.812
238.656
234.5
230.345
226.189
222.033
217.877
213.721
209.565
205.409
201.253
197.097
192.942
188.786
184.63
180.474
176.318
172.162
168.006
163.851
159.695
155.539
151.383
147.227
143.071
138.916
134.76
130.604
126.448
122.292
118.136
113.981
109.825
105.669
101.513
97.3572
93.2013
89.0455
84.8897
80.7339
76.5781
72.4223
68.2666
64.1109
59.9553
55.7998
51.6445
47.4894
43.3347
39.1806
35.0273
30.8752
26.725
22.5774
18.4331
14.2937
10.1563
6.03459
1.9217
422.219
414.078
409.789
404.389
399.695
394.886
390.282
385.73
381.271
376.864
372.509
368.191
363.905
359.644
355.403
351.179
346.969
342.769
338.577
334.393
330.214
326.04
321.87
317.702
313.537
309.373
305.211
301.051
296.891
292.732
288.574
284.416
280.259
276.101
271.945
267.788
263.632
259.475
255.319
251.163
247.007
242.851
238.695
234.539
230.383
226.227
222.071
217.915
213.759
209.603
205.448
201.292
197.136
192.98
188.824
184.668
180.512
176.357
172.201
168.045
163.889
159.733
155.577
151.421
147.266
143.11
138.954
134.798
130.642
126.486
122.331
118.175
114.019
109.863
105.707
101.551
97.3955
93.2397
89.0839
84.9281
80.7723
76.6165
72.4607
68.305
64.1493
59.9937
55.8382
51.6828
47.5278
43.3731
39.2189
35.0656
30.9136
26.7633
22.6157
18.4714
14.332
10.1951
6.07231
1.95496
421.947
414.156
409.852
404.437
399.737
394.925
390.321
385.769
381.309
376.902
372.546
368.228
363.942
359.681
355.441
351.216
347.006
342.806
338.614
334.43
330.251
326.077
321.906
317.739
313.573
309.41
305.248
301.087
296.928
292.769
288.61
284.453
280.295
276.138
271.981
267.825
263.668
259.512
255.356
251.2
247.044
242.887
238.731
234.576
230.42
226.264
222.108
217.952
213.796
209.64
205.484
201.328
197.173
193.017
188.861
184.705
180.549
176.393
172.237
168.082
163.926
159.77
155.614
151.458
147.302
143.146
138.991
134.835
130.679
126.523
122.367
118.211
114.056
109.9
105.744
101.588
97.4322
93.2764
89.1205
84.9647
80.8089
76.6531
72.4974
68.3416
64.1859
60.0303
55.8748
51.7195
47.5644
43.4097
39.2556
35.1023
30.9502
26.7999
22.6523
18.5081
14.3688
10.2324
6.10815
1.98637
421.712
414.219
409.911
404.483
399.777
394.961
390.358
385.805
381.345
376.938
372.582
368.264
363.977
359.716
355.476
351.251
347.041
342.841
338.649
334.465
330.286
326.112
321.941
317.773
313.608
309.445
305.283
301.122
296.962
292.803
288.645
284.487
280.33
276.173
272.016
267.859
263.703
259.547
255.39
251.234
247.078
242.922
238.766
234.61
230.454
226.298
222.142
217.987
213.831
209.675
205.519
201.363
197.207
193.051
188.895
184.74
180.584
176.428
172.272
168.116
163.96
159.805
155.649
151.493
147.337
143.181
139.025
134.869
130.714
126.558
122.402
118.246
114.09
109.934
105.779
101.623
97.4669
93.311
89.1552
84.9994
80.8436
76.6878
72.532
68.3763
64.2206
60.065
55.9095
51.7542
47.5991
43.4444
39.2902
35.1369
30.9848
26.8345
22.6869
18.5428
14.4035
10.2677
6.14191
2.01578
421.506
414.271
409.966
404.526
399.814
394.994
390.392
385.838
381.379
376.971
372.615
368.297
364.01
359.749
355.508
351.284
347.073
342.873
338.682
334.497
330.318
326.144
321.973
317.806
313.64
309.477
305.315
301.154
296.995
292.836
288.677
284.52
280.362
276.205
272.048
267.892
263.735
259.579
255.423
251.267
247.11
242.954
238.798
234.642
230.487
226.331
222.175
218.019
213.863
209.707
205.551
201.395
197.239
193.084
188.928
184.772
180.616
176.46
172.304
168.148
163.993
159.837
155.681
151.525
147.369
143.213
139.058
134.902
130.746
126.59
122.434
118.278
114.123
109.967
105.811
101.655
97.4992
93.3433
89.1875
85.0317
80.8759
76.7201
72.5643
68.4086
64.2529
60.0973
55.9418
51.7865
47.6314
43.4767
39.3225
35.1692
31.0171
26.8668
22.7191
18.5751
14.4359
10.3007
6.17337
2.04302
421.327
414.312
410.016
404.566
399.847
395.025
390.422
385.869
381.409
377.001
372.645
368.327
364.04
359.779
355.538
351.314
347.103
342.903
338.711
334.527
330.348
326.174
322.003
317.835
313.67
309.507
305.345
301.184
297.024
292.865
288.707
284.549
280.392
276.235
272.078
267.921
263.765
259.609
255.452
251.296
247.14
242.984
238.828
234.672
230.516
226.36
222.204
218.049
213.893
209.737
205.581
201.425
197.269
193.113
188.957
184.802
180.646
176.49
172.334
168.178
164.022
159.866
155.711
151.555
147.399
143.243
139.087
134.931
130.776
126.62
122.464
118.308
114.152
109.996
105.841
101.685
97.5288
93.373
89.2172
85.0614
80.9055
76.7498
72.594
68.4383
64.2826
60.127
55.9715
51.8161
47.661
43.5063
39.3522
35.1988
31.0467
26.8964
22.7487
18.6048
14.4656
10.3312
6.20231
2.06796
421.17
414.346
410.061
404.604
399.878
395.052
390.45
385.896
381.437
377.029
372.673
368.354
364.068
359.806
355.565
351.341
347.13
342.93
338.738
334.554
330.375
326.201
322.03
317.862
313.697
309.534
305.372
301.211
297.051
292.892
288.734
284.576
280.419
276.262
272.105
267.948
263.792
259.636
255.479
251.323
247.167
243.011
238.855
234.699
230.543
226.387
222.231
218.075
213.92
209.764
205.608
201.452
197.296
193.14
188.984
184.829
180.673
176.517
172.361
168.205
164.049
159.893
155.738
151.582
147.426
143.27
139.114
134.958
130.803
126.647
122.491
118.335
114.179
110.023
105.867
101.712
97.5558
93.4
89.2442
85.0883
80.9325
76.7767
72.621
68.4652
64.3095
60.1539
55.9984
51.8431
47.688
43.5333
39.3791
35.2258
31.0737
26.9234
22.7757
18.6318
14.4927
10.3591
6.22866
2.09056
421.034
414.372
410.101
404.637
399.905
395.077
390.475
385.921
381.462
377.054
372.698
368.379
364.092
359.831
355.59
351.366
347.155
342.954
338.763
334.578
330.399
326.225
322.054
317.887
313.721
309.558
305.396
301.235
297.076
292.917
288.758
284.601
280.443
276.286
272.129
267.973
263.816
259.66
255.504
251.347
247.191
243.035
238.879
234.723
230.567
226.412
222.256
218.1
213.944
209.788
205.632
201.476
197.32
193.165
189.009
184.853
180.697
176.541
172.385
168.229
164.074
159.918
155.762
151.606
147.45
143.294
139.139
134.983
130.827
126.671
122.515
118.359
114.203
110.048
105.892
101.736
97.5801
93.4243
89.2684
85.1126
80.9568
76.801
72.6452
68.4895
64.3338
60.1782
56.0227
51.8674
47.7123
43.5576
39.4034
35.2501
31.0979
26.9476
22.7999
18.6561
14.517
10.3842
6.25239
2.11083
420.917
414.393
410.137
404.668
399.929
395.099
390.497
385.943
381.484
377.076
372.72
368.401
364.114
359.853
355.612
351.387
347.176
342.976
338.784
334.6
330.421
326.247
322.076
317.908
313.743
309.579
305.418
301.257
297.097
292.938
288.78
284.622
280.465
276.308
272.151
267.994
263.838
259.681
255.525
251.369
247.213
243.057
238.901
234.745
230.589
226.433
222.277
218.121
213.965
209.81
205.654
201.498
197.342
193.186
189.03
184.874
180.719
176.563
172.407
168.251
164.095
159.939
155.783
151.628
147.472
143.316
139.16
135.004
130.848
126.693
122.537
118.381
114.225
110.069
105.913
101.758
97.6017
93.4459
89.29
85.1342
80.9784
76.8226
72.6668
68.5111
64.3554
60.1998
56.0443
51.889
47.7339
43.5792
39.425
35.2716
31.1195
26.9692
22.8215
18.6777
14.5387
10.4067
6.27351
2.12881
420.817
414.41
410.167
404.694
399.95
395.118
390.516
385.962
381.503
377.095
372.739
368.42
364.133
359.872
355.631
351.406
347.195
342.995
338.803
334.619
330.44
326.266
322.095
317.927
313.762
309.598
305.436
301.276
297.116
292.957
288.799
284.641
280.484
276.327
272.17
268.013
263.857
259.7
255.544
251.388
247.232
243.076
238.92
234.764
230.608
226.452
222.296
218.14
213.984
209.828
205.673
201.517
197.361
193.205
189.049
184.893
180.737
176.582
172.426
168.27
164.114
159.958
155.802
151.647
147.491
143.335
139.179
135.023
130.867
126.711
122.556
118.4
114.244
110.088
105.932
101.776
97.6206
93.4647
89.3089
85.1531
80.9973
76.8415
72.6857
68.53
64.3743
60.2187
56.0632
51.9079
47.7528
43.598
39.4439
35.2905
31.1384
26.9881
22.8403
18.6967
14.5576
10.4264
6.29201
2.14451
420.734
414.423
410.194
404.717
399.969
395.134
390.533
385.978
381.52
377.111
372.755
368.436
364.15
359.888
355.647
351.423
347.211
343.011
338.82
334.635
330.456
326.282
322.111
317.943
313.778
309.615
305.453
301.292
297.132
292.973
288.815
284.657
280.5
276.343
272.186
268.029
263.873
259.717
255.56
251.404
247.248
243.092
238.936
234.78
230.624
226.468
222.312
218.156
214.001
209.845
205.689
201.533
197.377
193.221
189.065
184.91
180.754
176.598
172.442
168.286
164.13
159.974
155.819
151.663
147.507
143.351
139.195
135.039
130.883
126.728
122.572
118.416
114.26
110.104
105.948
101.793
97.6368
93.4809
89.3251
85.1693
81.0135
76.8577
72.7019
68.5462
64.3905
60.2349
56.0794
51.924
47.769
43.6142
39.4601
35.3067
31.1546
27.0043
22.8565
18.7129
14.5739
10.4433
6.30788
2.15795
420.666
414.432
410.215
404.737
399.984
395.148
390.546
385.992
381.533
377.125
372.769
368.45
364.163
359.902
355.661
351.436
347.225
343.025
338.833
334.649
330.47
326.295
322.125
317.957
313.792
309.628
305.466
301.305
297.146
292.987
288.829
284.671
280.513
276.356
272.199
268.043
263.886
259.73
255.574
251.418
247.262
243.106
238.95
234.794
230.638
226.482
222.326
218.17
214.014
209.858
205.702
201.546
197.391
193.235
189.079
184.923
180.767
176.611
172.455
168.3
164.144
159.988
155.832
151.676
147.52
143.365
139.209
135.053
130.897
126.741
122.585
118.429
114.274
110.118
105.962
101.806
97.6503
93.4944
89.3386
85.1828
81.027
76.8712
72.7154
68.5597
64.404
60.2484
56.0929
51.9375
47.7824
43.6277
39.4735
35.3202
31.168
27.0178
22.87
18.7264
14.5874
10.4574
6.32112
2.16913
420.613
414.44
410.233
404.752
399.996
395.158
390.557
386.003
381.544
377.136
372.78
368.461
364.174
359.912
355.671
351.447
347.236
343.036
338.844
334.659
330.48
326.306
322.135
317.968
313.802
309.639
305.477
301.316
297.157
292.998
288.839
284.682
280.524
276.367
272.21
268.054
263.897
259.741
255.585
251.428
247.272
243.116
238.96
234.804
230.648
226.493
222.337
218.181
214.025
209.869
205.713
201.557
197.401
193.246
189.09
184.934
180.778
176.622
172.466
168.31
164.155
159.999
155.843
151.687
147.531
143.375
139.219
135.064
130.908
126.752
122.596
118.44
114.284
110.129
105.973
101.817
97.6611
93.5052
89.3494
85.1936
81.0378
76.882
72.7262
68.5705
64.4148
60.2592
56.1037
51.9483
47.7932
43.6385
39.4843
35.331
31.1788
27.0285
22.8807
18.7372
14.5982
10.4687
6.33171
2.17807
420.574
414.445
410.245
404.764
400.004
395.166
390.565
386.011
381.552
377.144
372.788
368.469
364.182
359.921
355.68
351.455
347.244
343.044
338.852
334.667
330.489
326.314
322.144
317.976
313.81
309.647
305.485
301.324
297.165
293.006
288.847
284.69
280.532
276.375
272.218
268.062
263.905
259.749
255.593
251.437
247.28
243.124
238.968
234.812
230.657
226.501
222.345
218.189
214.033
209.877
205.721
201.565
197.409
193.254
189.098
184.942
180.786
176.63
172.474
168.318
164.163
160.007
155.851
151.695
147.539
143.383
139.228
135.072
130.916
126.76
122.604
118.448
114.293
110.137
105.981
101.825
97.6692
93.5133
89.3575
85.2017
81.0459
76.8901
72.7343
68.5786
64.4229
60.2673
56.1118
51.9564
47.8013
43.6466
39.4924
35.3391
31.1869
27.0366
22.8888
18.7454
14.6064
10.4772
6.33967
2.18477
420.548
414.448
410.254
404.772
400.01
395.172
390.571
386.016
381.558
377.15
372.794
368.475
364.188
359.926
355.685
351.46
347.249
343.049
338.857
334.673
330.494
326.32
322.149
317.981
313.816
309.652
305.49
301.33
297.17
293.011
288.853
284.695
280.538
276.381
272.224
268.067
263.911
259.754
255.598
251.442
247.286
243.13
238.974
234.818
230.662
226.506
222.35
218.194
214.038
209.882
205.727
201.571
197.415
193.259
189.103
184.947
180.791
176.636
172.48
168.324
164.168
160.012
155.856
151.701
147.545
143.389
139.233
135.077
130.921
126.765
122.61
118.454
114.298
110.142
105.986
101.83
97.6746
93.5187
89.3629
85.2071
81.0513
76.8955
72.7397
68.584
64.4283
60.2727
56.1172
51.9618
47.8067
43.652
39.4978
35.3445
31.1923
27.042
22.8942
18.7508
14.6118
10.4829
6.34497
2.18923
420.535
414.449
410.258
404.775
400.013
395.174
390.573
386.019
381.561
377.152
372.796
368.477
364.19
359.929
355.688
351.463
347.252
343.052
338.86
334.676
330.497
326.322
322.152
317.984
313.819
309.655
305.493
301.332
297.173
293.014
288.856
284.698
280.54
276.383
272.226
268.07
263.913
259.757
255.601
251.445
247.289
243.133
238.977
234.821
230.665
226.509
222.353
218.197
214.041
209.885
205.729
201.573
197.418
193.262
189.106
184.95
180.794
176.638
172.482
168.327
164.171
160.015
155.859
151.703
147.547
143.392
139.236
135.08
130.924
126.768
122.612
118.456
114.301
110.145
105.989
101.833
97.6773
93.5214
89.3656
85.2098
81.054
76.8982
72.7424
68.5867
64.431
60.2754
56.1199
51.9645
47.8094
43.6547
39.5005
35.3472
31.195
27.0447
22.8969
18.7535
14.6145
10.4857
6.34762
2.19146
420.535
414.449
410.258
404.775
400.013
395.174
390.573
386.019
381.561
377.152
372.796
368.477
364.19
359.929
355.688
351.463
347.252
343.052
338.86
334.676
330.497
326.322
322.152
317.984
313.819
309.655
305.493
301.332
297.173
293.014
288.856
284.698
280.54
276.383
272.226
268.07
263.913
259.757
255.601
251.445
247.289
243.133
238.977
234.821
230.665
226.509
222.353
218.197
214.041
209.885
205.729
201.573
197.418
193.262
189.106
184.95
180.794
176.638
172.482
168.327
164.171
160.015
155.859
151.703
147.547
143.392
139.236
135.08
130.924
126.768
122.612
118.456
114.301
110.145
105.989
101.833
97.6773
93.5214
89.3656
85.2098
81.054
76.8982
72.7424
68.5867
64.431
60.2754
56.1199
51.9645
47.8094
43.6547
39.5005
35.3472
31.195
27.0447
22.8969
18.7535
14.6145
10.4857
6.34762
2.19146
420.548
414.448
410.254
404.772
400.01
395.172
390.571
386.016
381.558
377.15
372.794
368.475
364.188
359.926
355.685
351.461
347.249
343.049
338.857
334.673
330.494
326.32
322.149
317.981
313.816
309.652
305.49
301.33
297.17
293.011
288.853
284.695
280.538
276.381
272.224
268.067
263.911
259.754
255.598
251.442
247.286
243.13
238.974
234.818
230.662
226.506
222.35
218.194
214.038
209.882
205.727
201.571
197.415
193.259
189.103
184.947
180.791
176.636
172.48
168.324
164.168
160.012
155.856
151.701
147.545
143.389
139.233
135.077
130.921
126.765
122.61
118.454
114.298
110.142
105.986
101.83
97.6746
93.5187
89.3629
85.2071
81.0513
76.8955
72.7397
68.584
64.4283
60.2727
56.1172
51.9618
47.8067
43.652
39.4978
35.3445
31.1923
27.042
22.8942
18.7508
14.6118
10.4829
6.34497
2.18923
420.574
414.445
410.245
404.764
400.004
395.166
390.565
386.011
381.552
377.144
372.788
368.469
364.182
359.921
355.68
351.455
347.244
343.044
338.852
334.667
330.489
326.314
322.144
317.976
313.81
309.647
305.485
301.324
297.165
293.006
288.847
284.69
280.532
276.375
272.218
268.062
263.905
259.749
255.593
251.437
247.28
243.124
238.968
234.812
230.657
226.501
222.345
218.189
214.033
209.877
205.721
201.565
197.409
193.254
189.098
184.942
180.786
176.63
172.474
168.318
164.163
160.007
155.851
151.695
147.539
143.383
139.228
135.072
130.916
126.76
122.604
118.448
114.293
110.137
105.981
101.825
97.6692
93.5133
89.3575
85.2017
81.0459
76.8901
72.7343
68.5786
64.4229
60.2673
56.1118
51.9564
47.8013
43.6466
39.4924
35.3391
31.1869
27.0366
22.8888
18.7454
14.6064
10.4772
6.33967
2.18477
420.613
414.44
410.233
404.752
399.995
395.158
390.557
386.003
381.544
377.136
372.78
368.461
364.174
359.912
355.671
351.447
347.236
343.036
338.844
334.659
330.48
326.306
322.135
317.968
313.802
309.639
305.477
301.316
297.157
292.998
288.839
284.682
280.524
276.367
272.21
268.054
263.897
259.741
255.585
251.428
247.272
243.116
238.96
234.804
230.648
226.493
222.337
218.181
214.025
209.869
205.713
201.557
197.401
193.246
189.09
184.934
180.778
176.622
172.466
168.31
164.155
159.999
155.843
151.687
147.531
143.375
139.219
135.064
130.908
126.752
122.596
118.44
114.284
110.129
105.973
101.817
97.6611
93.5052
89.3494
85.1936
81.0378
76.882
72.7262
68.5705
64.4148
60.2592
56.1037
51.9483
47.7932
43.6385
39.4843
35.331
31.1788
27.0285
22.8807
18.7372
14.5982
10.4687
6.33171
2.17807
420.666
414.432
410.215
404.737
399.984
395.148
390.546
385.992
381.533
377.125
372.769
368.45
364.163
359.902
355.661
351.436
347.225
343.025
338.833
334.649
330.47
326.295
322.125
317.957
313.792
309.628
305.466
301.305
297.146
292.987
288.829
284.671
280.513
276.356
272.199
268.043
263.886
259.73
255.574
251.418
247.262
243.106
238.95
234.794
230.638
226.482
222.326
218.17
214.014
209.858
205.702
201.546
197.391
193.235
189.079
184.923
180.767
176.611
172.455
168.3
164.144
159.988
155.832
151.676
147.52
143.365
139.209
135.053
130.897
126.741
122.585
118.429
114.274
110.118
105.962
101.806
97.6503
93.4944
89.3386
85.1828
81.027
76.8712
72.7154
68.5597
64.404
60.2484
56.0929
51.9375
47.7824
43.6277
39.4735
35.3202
31.168
27.0178
22.87
18.7264
14.5874
10.4574
6.32112
2.16913
420.734
414.423
410.194
404.717
399.969
395.134
390.533
385.978
381.52
377.111
372.755
368.436
364.15
359.888
355.647
351.423
347.211
343.011
338.82
334.635
330.456
326.282
322.111
317.943
313.778
309.615
305.453
301.292
297.132
292.973
288.815
284.657
280.5
276.343
272.186
268.029
263.873
259.717
255.56
251.404
247.248
243.092
238.936
234.78
230.624
226.468
222.312
218.156
214.001
209.845
205.689
201.533
197.377
193.221
189.065
184.91
180.754
176.598
172.442
168.286
164.13
159.974
155.819
151.663
147.507
143.351
139.195
135.039
130.884
126.728
122.572
118.416
114.26
110.104
105.948
101.793
97.6368
93.4809
89.3251
85.1693
81.0135
76.8577
72.7019
68.5462
64.3905
60.2349
56.0794
51.924
47.769
43.6142
39.4601
35.3067
31.1546
27.0043
22.8565
18.7129
14.5739
10.4433
6.30788
2.15795
420.817
414.41
410.167
404.694
399.95
395.118
390.516
385.962
381.503
377.095
372.739
368.42
364.133
359.872
355.631
351.406
347.195
342.995
338.803
334.619
330.44
326.266
322.095
317.927
313.762
309.598
305.436
301.276
297.116
292.957
288.799
284.641
280.484
276.327
272.17
268.013
263.857
259.7
255.544
251.388
247.232
243.076
238.92
234.764
230.608
226.452
222.296
218.14
213.984
209.829
205.673
201.517
197.361
193.205
189.049
184.893
180.737
176.582
172.426
168.27
164.114
159.958
155.802
151.647
147.491
143.335
139.179
135.023
130.867
126.711
122.556
118.4
114.244
110.088
105.932
101.776
97.6206
93.4648
89.3089
85.1531
80.9973
76.8415
72.6857
68.53
64.3743
60.2187
56.0632
51.9079
47.7528
43.5981
39.4439
35.2905
31.1384
26.9881
22.8403
18.6967
14.5576
10.4264
6.29201
2.14451
420.917
414.393
410.137
404.668
399.929
395.099
390.497
385.943
381.484
377.076
372.72
368.401
364.114
359.853
355.612
351.387
347.176
342.976
338.784
334.6
330.421
326.247
322.076
317.908
313.743
309.579
305.418
301.257
297.097
292.938
288.78
284.622
280.465
276.308
272.151
267.994
263.838
259.681
255.525
251.369
247.213
243.057
238.901
234.745
230.589
226.433
222.277
218.121
213.965
209.81
205.654
201.498
197.342
193.186
189.03
184.874
180.719
176.563
172.407
168.251
164.095
159.939
155.783
151.628
147.472
143.316
139.16
135.004
130.848
126.693
122.537
118.381
114.225
110.069
105.913
101.758
97.6017
93.4459
89.29
85.1342
80.9784
76.8226
72.6668
68.5111
64.3554
60.1998
56.0443
51.889
47.7339
43.5792
39.425
35.2717
31.1195
26.9692
22.8215
18.6777
14.5387
10.4067
6.27351
2.12881
421.034
414.372
410.101
404.637
399.905
395.077
390.475
385.921
381.462
377.054
372.698
368.379
364.092
359.831
355.59
351.366
347.155
342.954
338.763
334.578
330.399
326.225
322.054
317.887
313.721
309.558
305.396
301.235
297.076
292.917
288.758
284.601
280.443
276.286
272.129
267.973
263.816
259.66
255.504
251.348
247.191
243.035
238.879
234.723
230.568
226.412
222.256
218.1
213.944
209.788
205.632
201.476
197.32
193.165
189.009
184.853
180.697
176.541
172.385
168.229
164.074
159.918
155.762
151.606
147.45
143.294
139.139
134.983
130.827
126.671
122.515
118.359
114.203
110.048
105.892
101.736
97.5801
93.4243
89.2685
85.1126
80.9568
76.801
72.6453
68.4895
64.3338
60.1782
56.0227
51.8674
47.7123
43.5576
39.4034
35.2501
31.0979
26.9477
22.7999
18.6561
14.517
10.3842
6.25239
2.11083
421.17
414.346
410.061
404.604
399.878
395.052
390.45
385.896
381.437
377.029
372.673
368.354
364.068
359.806
355.565
351.341
347.13
342.93
338.738
334.554
330.375
326.201
322.03
317.862
313.697
309.534
305.372
301.211
297.051
292.892
288.734
284.576
280.419
276.262
272.105
267.948
263.792
259.636
255.479
251.323
247.167
243.011
238.855
234.699
230.543
226.387
222.231
218.076
213.92
209.764
205.608
201.452
197.296
193.14
188.984
184.829
180.673
176.517
172.361
168.205
164.049
159.893
155.738
151.582
147.426
143.27
139.114
134.958
130.803
126.647
122.491
118.335
114.179
110.023
105.868
101.712
97.5558
93.4
89.2442
85.0884
80.9325
76.7767
72.621
68.4652
64.3096
60.1539
55.9984
51.8431
47.688
43.5333
39.3791
35.2258
31.0737
26.9234
22.7757
18.6318
14.4927
10.3591
6.22866
2.09056
421.327
414.312
410.016
404.566
399.847
395.025
390.422
385.869
381.409
377.001
372.645
368.327
364.04
359.779
355.538
351.314
347.103
342.903
338.711
334.527
330.348
326.174
322.003
317.835
313.67
309.507
305.345
301.184
297.024
292.865
288.707
284.549
280.392
276.235
272.078
267.921
263.765
259.609
255.452
251.296
247.14
242.984
238.828
234.672
230.516
226.36
222.204
218.049
213.893
209.737
205.581
201.425
197.269
193.113
188.957
184.802
180.646
176.49
172.334
168.178
164.022
159.866
155.711
151.555
147.399
143.243
139.087
134.931
130.776
126.62
122.464
118.308
114.152
109.996
105.841
101.685
97.5289
93.373
89.2172
85.0614
80.9056
76.7498
72.594
68.4383
64.2826
60.127
55.9715
51.8161
47.661
43.5063
39.3522
35.1988
31.0467
26.8964
22.7487
18.6048
14.4656
10.3312
6.20232
2.06796
421.506
414.271
409.966
404.526
399.814
394.994
390.392
385.838
381.379
376.971
372.615
368.297
364.01
359.749
355.508
351.284
347.073
342.873
338.682
334.497
330.318
326.144
321.973
317.806
313.64
309.477
305.315
301.154
296.995
292.836
288.677
284.52
280.362
276.205
272.048
267.892
263.735
259.579
255.423
251.267
247.111
242.954
238.798
234.643
230.487
226.331
222.175
218.019
213.863
209.707
205.551
201.395
197.239
193.084
188.928
184.772
180.616
176.46
172.304
168.149
163.993
159.837
155.681
151.525
147.369
143.213
139.058
134.902
130.746
126.59
122.434
118.278
114.123
109.967
105.811
101.655
97.4992
93.3434
89.1875
85.0317
80.8759
76.7201
72.5643
68.4086
64.2529
60.0973
55.9418
51.7865
47.6314
43.4767
39.3225
35.1692
31.0171
26.8668
22.7191
18.5751
14.4359
10.3008
6.17338
2.04303
421.712
414.219
409.911
404.483
399.777
394.961
390.358
385.805
381.345
376.938
372.582
368.264
363.978
359.716
355.476
351.251
347.041
342.841
338.649
334.465
330.286
326.112
321.941
317.773
313.608
309.445
305.283
301.122
296.962
292.803
288.645
284.487
280.33
276.173
272.016
267.859
263.703
259.547
255.39
251.234
247.078
242.922
238.766
234.61
230.454
226.298
222.142
217.987
213.831
209.675
205.519
201.363
197.207
193.051
188.895
184.74
180.584
176.428
172.272
168.116
163.96
159.805
155.649
151.493
147.337
143.181
139.025
134.869
130.714
126.558
122.402
118.246
114.09
109.934
105.779
101.623
97.4669
93.3111
89.1552
84.9994
80.8436
76.6878
72.532
68.3763
64.2206
60.065
55.9095
51.7542
47.5991
43.4444
39.2902
35.1369
30.9848
26.8345
22.6869
18.5428
14.4035
10.2677
6.14192
2.01578
421.947
414.156
409.852
404.437
399.737
394.925
390.321
385.769
381.309
376.902
372.547
368.228
363.942
359.681
355.441
351.216
347.006
342.806
338.614
334.43
330.251
326.077
321.906
317.739
313.573
309.41
305.248
301.087
296.928
292.769
288.61
284.453
280.295
276.138
271.981
267.825
263.668
259.512
255.356
251.2
247.044
242.888
238.732
234.576
230.42
226.264
222.108
217.952
213.796
209.64
205.484
201.328
197.173
193.017
188.861
184.705
180.549
176.393
172.237
168.082
163.926
159.77
155.614
151.458
147.302
143.146
138.991
134.835
130.679
126.523
122.367
118.211
114.056
109.9
105.744
101.588
97.4322
93.2764
89.1206
84.9647
80.8089
76.6531
72.4974
68.3416
64.1859
60.0303
55.8748
51.7195
47.5644
43.4097
39.2556
35.1023
30.9502
26.7999
22.6523
18.5081
14.3688
10.2324
6.10815
1.98637
422.219
414.078
409.789
404.389
399.695
394.886
390.282
385.73
381.271
376.864
372.509
368.191
363.905
359.644
355.403
351.179
346.969
342.769
338.577
334.393
330.214
326.04
321.87
317.702
313.537
309.373
305.211
301.051
296.891
292.732
288.574
284.416
280.259
276.102
271.945
267.788
263.632
259.475
255.319
251.163
247.007
242.851
238.695
234.539
230.383
226.227
222.071
217.915
213.759
209.603
205.448
201.292
197.136
192.98
188.824
184.668
180.512
176.357
172.201
168.045
163.889
159.733
155.577
151.421
147.266
143.11
138.954
134.798
130.642
126.486
122.331
118.175
114.019
109.863
105.707
101.551
97.3956
93.2397
89.0839
84.9281
80.7723
76.6165
72.4607
68.305
64.1493
59.9937
55.8382
51.6829
47.5278
43.3731
39.2189
35.0656
30.9136
26.7633
22.6157
18.4714
14.332
10.1951
6.07231
1.95496
422.524
413.983
409.722
404.34
399.65
394.845
390.241
385.69
381.231
376.824
372.469
368.151
363.866
359.605
355.365
351.141
346.93
342.73
338.539
334.355
330.176
326.002
321.831
317.663
313.498
309.335
305.173
301.012
296.853
292.694
288.535
284.378
280.22
276.063
271.906
267.75
263.593
259.437
255.281
251.125
246.969
242.812
238.656
234.501
230.345
226.189
222.033
217.877
213.721
209.565
205.409
201.253
197.098
192.942
188.786
184.63
180.474
176.318
172.162
168.007
163.851
159.695
155.539
151.383
147.227
143.071
138.916
134.76
130.604
126.448
122.292
118.136
113.981
109.825
105.669
101.513
97.3572
93.2014
89.0455
84.8897
80.7339
76.5781
72.4223
68.2666
64.1109
59.9553
55.7998
51.6445
47.4894
43.3347
39.1806
35.0273
30.8752
26.725
22.5774
18.4331
14.2937
10.1563
6.0346
1.9217
422.863
413.873
409.657
404.293
399.606
394.806
390.202
385.652
381.192
376.787
372.432
368.114
363.828
359.568
355.328
351.104
346.893
342.693
338.502
334.318
330.139
325.965
321.795
317.627
313.462
309.298
305.136
300.976
296.816
292.657
288.499
284.341
280.184
276.027
271.87
267.713
263.557
259.401
255.244
251.088
246.932
242.776
238.62
234.464
230.308
226.152
221.996
217.84
213.685
209.529
205.373
201.217
197.061
192.905
188.749
184.594
180.438
176.282
172.126
167.97
163.814
159.658
155.503
151.347
147.191
143.035
138.879
134.723
130.568
126.412
122.256
118.1
113.944
109.788
105.632
101.477
97.3208
93.165
89.0091
84.8533
80.6975
76.5417
72.3859
68.2302
64.0745
59.9189
55.7634
51.6081
47.453
43.2983
39.1442
34.9909
30.8389
26.6887
22.5411
18.3968
14.2572
10.12
5.99923
1.89066
423.382
413.781
409.621
404.276
399.589
394.793
390.189
385.64
381.181
376.776
372.421
368.104