/*--------------------------------*- C++ -*----------------------------------*\
  =========                 |
  \\      /  F ield         | OpenFOAM: The Open Source CFD Toolbox
   \\    /   O peration     | Website:  https://openfoam.org
    \\  /    A nd           | Version:  7
     \\/     M anipulation  |
\*---------------------------------------------------------------------------*/
FoamFile
{
    version     2.0;
    format      ascii;
    class       volScalarField;
    location    "2";
    object      pB;
}
// * * * * * * * * * * * * * * * * * * * * * * * * * * * * * * * * * * * * * //

dimensions      [1 1 -3 0 0 -1 0];

internalField   nonuniform List<scalar> 
4000
(
28.3304
65.1176
85.1995
92.5376
92.2863
87.0649
79.3189
70.4556
61.4436
52.8187
44.8883
37.7882
31.5564
26.1676
21.5623
17.6635
14.3882
11.6543
9.3847
7.50918
5.96555
4.69948
3.66428
2.82017
2.13355
1.57629
1.12497
0.760092
0.465675
0.228472
0.0376858
-0.115546
-0.238443
-0.336864
-0.415584
-0.478483
-0.528639
-0.568638
-0.600445
-0.625752
-0.645837
-0.661769
-0.674393
-0.684379
-0.692266
-0.698505
-0.703403
-0.707283
-0.710309
-0.712702
-0.714561
-0.716023
-0.717156
-0.718045
-0.718727
-0.719267
-0.719672
-0.720003
-0.720241
-0.720437
-0.720568
-0.720672
-0.720725
-0.720762
-0.720753
-0.720726
-0.720655
-0.72056
-0.720413
-0.720226
-0.719956
-0.71961
-0.719127
-0.718497
-0.717636
-0.716495
-0.714962
-0.712926
-0.710211
-0.706622
-0.701866
-0.695613
-0.687394
-0.676672
-0.662734
-0.644767
-0.621781
-0.592693
-0.556364
-0.511773
-0.458282
-0.396151
-0.32734
-0.256828
-0.194492
-0.157103
-0.16804
-0.246434
-0.364289
-0.362234
30.4858
65.1365
84.4653
91.7321
91.5097
86.3847
78.7337
69.9618
61.0301
52.4764
44.6076
37.5606
31.3741
26.0237
21.4507
17.5788
14.326
11.6106
9.35615
7.4931
5.95965
4.70186
3.67337
2.83468
2.15244
1.59869
1.1502
0.787589
0.49498
0.259219
0.0695782
-0.0827394
-0.204917
-0.302768
-0.381036
-0.443583
-0.493458
-0.533238
-0.564874
-0.590045
-0.610027
-0.625874
-0.638435
-0.648371
-0.656219
-0.662429
-0.667301
-0.671164
-0.674177
-0.676558
-0.678411
-0.679865
-0.680994
-0.681879
-0.682558
-0.683097
-0.6835
-0.683828
-0.684065
-0.68426
-0.68439
-0.684493
-0.684546
-0.684582
-0.684574
-0.684547
-0.684476
-0.684382
-0.684236
-0.684049
-0.683779
-0.683435
-0.682954
-0.682327
-0.68147
-0.680335
-0.67881
-0.676785
-0.674086
-0.670517
-0.665787
-0.659572
-0.6514
-0.640743
-0.626891
-0.609037
-0.586202
-0.557313
-0.521247
-0.477
-0.423953
-0.362386
-0.29425
-0.224453
-0.162598
-0.124651
-0.132008
-0.199595
-0.296961
-0.289099
31.8021
65.009
83.4076
90.4978
90.2772
85.2683
77.7515
69.1175
60.3135
51.8761
44.1104
37.1538
31.0454
25.7618
21.2454
17.4213
14.2082
11.5259
9.29877
7.45819
5.94313
4.70037
3.68409
2.85532
2.18109
1.6338
1.19052
0.83208
0.542819
0.309738
0.12223
-0.0283834
-0.149212
-0.245992
-0.32341
-0.385288
-0.434632
-0.473996
-0.505306
-0.530216
-0.549999
-0.565683
-0.578121
-0.58796
-0.595731
-0.601884
-0.606709
-0.610536
-0.613523
-0.615881
-0.61772
-0.61916
-0.62028
-0.621157
-0.62183
-0.622366
-0.622765
-0.623089
-0.623324
-0.623515
-0.623644
-0.623746
-0.623798
-0.623834
-0.623825
-0.623798
-0.623729
-0.623635
-0.62349
-0.623304
-0.623037
-0.622695
-0.622218
-0.621596
-0.620748
-0.619624
-0.618117
-0.616114
-0.613445
-0.609916
-0.605239
-0.599094
-0.591015
-0.58048
-0.56679
-0.549146
-0.526588
-0.498058
-0.462456
-0.418803
-0.3665
-0.305839
-0.238729
-0.169907
-0.108477
-0.0690875
-0.0703649
-0.122117
-0.194228
-0.178364
31.8999
64.3806
81.8655
88.6988
88.465
83.5989
76.2644
67.824
59.2041
50.9365
43.3229
36.5005
30.5085
25.3249
20.8935
17.1409
13.9878
11.3554
9.16961
7.36305
5.87589
4.65593
3.65822
2.84453
2.18251
1.64509
1.20975
0.8577
0.573566
0.344594
0.160366
0.0123717
-0.106376
-0.201503
-0.277608
-0.33845
-0.386973
-0.425689
-0.45649
-0.480995
-0.500464
-0.515898
-0.528141
-0.537828
-0.545478
-0.55154
-0.556292
-0.560062
-0.563006
-0.565329
-0.567144
-0.568563
-0.569668
-0.570534
-0.571197
-0.571725
-0.572119
-0.572437
-0.572668
-0.572855
-0.572982
-0.573081
-0.573133
-0.573167
-0.573159
-0.573132
-0.573065
-0.572971
-0.572828
-0.572644
-0.57238
-0.572042
-0.571572
-0.570959
-0.570125
-0.569019
-0.567539
-0.565569
-0.562948
-0.55948
-0.554885
-0.548848
-0.540913
-0.530566
-0.517124
-0.499802
-0.477664
-0.449676
-0.414768
-0.371992
-0.320777
-0.261411
-0.195726
-0.12818
-0.0671341
-0.0254258
-0.0182098
-0.0497159
-0.0925398
-0.0644483
31.0973
63.1283
79.8091
86.3456
86.0933
81.3933
74.2855
66.0911
57.7094
49.6635
42.2497
35.6039
29.7658
24.7146
20.3958
16.7384
13.665
11.0989
8.96809
7.20684
5.75689
4.56736
3.59446
2.80092
2.15525
1.63103
1.20634
0.862864
0.585619
0.36217
0.182358
0.0378912
-0.0780469
-0.170942
-0.245272
-0.304709
-0.352119
-0.389954
-0.420062
-0.444017
-0.463057
-0.47815
-0.490126
-0.499605
-0.50709
-0.513025
-0.517678
-0.521368
-0.524254
-0.526528
-0.528309
-0.529699
-0.530783
-0.531632
-0.532282
-0.5328
-0.533186
-0.533496
-0.533722
-0.533903
-0.534027
-0.534123
-0.534173
-0.534206
-0.534198
-0.534171
-0.534106
-0.534013
-0.533873
-0.533691
-0.533432
-0.5331
-0.53264
-0.532039
-0.531224
-0.530142
-0.528697
-0.526774
-0.524216
-0.520831
-0.516347
-0.510456
-0.502715
-0.492621
-0.479511
-0.462621
-0.441042
-0.413772
-0.37978
-0.338155
-0.28835
-0.230643
-0.166748
-0.100748
-0.0400613
0.00463363
0.0220072
0.0131973
0.00143571
0.0413231
29.759
61.2612
77.2333
83.4601
83.1921
78.6803
71.8402
63.941
55.8492
48.0745
40.9065
34.4787
28.8307
23.9432
19.764
16.2244
13.2499
10.7661
8.70358
6.99864
5.59493
4.44326
3.50123
2.73281
2.10751
1.59977
1.18839
0.855639
0.587008
0.370473
0.196193
0.0561491
-0.056261
-0.14635
-0.218446
-0.276112
-0.322119
-0.35884
-0.388071
-0.411331
-0.429825
-0.444487
-0.456122
-0.465336
-0.472611
-0.478383
-0.482909
-0.486498
-0.489308
-0.49152
-0.493255
-0.49461
-0.495665
-0.496494
-0.497126
-0.497631
-0.498007
-0.498307
-0.498526
-0.498699
-0.49882
-0.498912
-0.498959
-0.498991
-0.498983
-0.498957
-0.498893
-0.498802
-0.498665
-0.498487
-0.498233
-0.497909
-0.49746
-0.496876
-0.496084
-0.495034
-0.493633
-0.491769
-0.489289
-0.48601
-0.481664
-0.475957
-0.468456
-0.45868
-0.445984
-0.429632
-0.408746
-0.382366
-0.349503
-0.309287
-0.261198
-0.20549
-0.143726
-0.0795332
-0.0192509
0.0288022
0.0571878
0.0718794
0.0911283
0.138579
28.1073
58.8351
74.1471
80.0638
79.7875
75.4856
68.9514
61.3933
53.6403
46.1844
39.3061
33.1359
27.7129
23.0194
19.0056
15.6058
12.7485
10.3626
8.38111
6.74307
5.39437
4.28772
3.38245
2.64395
2.04293
1.55485
1.15936
0.839406
0.581072
0.372804
0.205148
0.0704022
-0.0377758
-0.124494
-0.193906
-0.249439
-0.293754
-0.329132
-0.357303
-0.379721
-0.397552
-0.411693
-0.422914
-0.431806
-0.438825
-0.444397
-0.448768
-0.452234
-0.45495
-0.457087
-0.458765
-0.460076
-0.461096
-0.461899
-0.462509
-0.462998
-0.463361
-0.46365
-0.463861
-0.464026
-0.46414
-0.464229
-0.464273
-0.464303
-0.464294
-0.464268
-0.464207
-0.464118
-0.463984
-0.463811
-0.463564
-0.46325
-0.462815
-0.46225
-0.461487
-0.460476
-0.459126
-0.457333
-0.454947
-0.451793
-0.447614
-0.442125
-0.434914
-0.425515
-0.413314
-0.397601
-0.37754
-0.352214
-0.320683
-0.282123
-0.236039
-0.182648
-0.123338
-0.0612248
-0.00148922
0.0499662
0.0894464
0.127098
0.175534
0.22512
26.2693
55.9205
70.5714
76.179
75.9048
71.8339
65.6409
58.4673
51.0989
44.0067
37.4601
31.5851
26.4204
21.9498
18.1261
14.8871
12.1648
9.89142
8.0033
6.44235
5.15701
4.10229
3.23941
2.53542
1.96244
1.49708
1.11994
0.814806
0.568392
0.3697
0.209724
0.0811261
-0.0221358
-0.104934
-0.171221
-0.224268
-0.266608
-0.300418
-0.327346
-0.34878
-0.365831
-0.379359
-0.390094
-0.398605
-0.405323
-0.41066
-0.414847
-0.418169
-0.420772
-0.422821
-0.424429
-0.425689
-0.426667
-0.427439
-0.428023
-0.428492
-0.428839
-0.429115
-0.429315
-0.429472
-0.429579
-0.429663
-0.429704
-0.429732
-0.429722
-0.429697
-0.429637
-0.429551
-0.429421
-0.429254
-0.429015
-0.428712
-0.428294
-0.427753
-0.427022
-0.426055
-0.424766
-0.423054
-0.420777
-0.417769
-0.413782
-0.408547
-0.401669
-0.392708
-0.381076
-0.366102
-0.346992
-0.322878
-0.292874
-0.256203
-0.212394
-0.161622
-0.105078
-0.0453369
0.0136007
0.0681776
0.118125
0.176961
0.251126
0.297877
24.3206
52.5897
66.5371
71.8323
71.5707
67.7512
61.9324
55.1833
48.2425
41.5562
35.3807
29.8367
24.9619
20.7415
17.1315
14.0732
11.5026
9.35582
7.57273
6.09852
4.88452
3.88827
3.07315
2.40807
1.8667
1.42697
1.07055
0.782144
0.549203
0.361343
0.210061
0.0884273
-0.00925997
-0.0876081
-0.150344
-0.200563
-0.240654
-0.272676
-0.298185
-0.318494
-0.334653
-0.347477
-0.357654
-0.365728
-0.3721
-0.377166
-0.381141
-0.384296
-0.386769
-0.388716
-0.390244
-0.391443
-0.392372
-0.393107
-0.393662
-0.394108
-0.394436
-0.394697
-0.394886
-0.395033
-0.395131
-0.39521
-0.395246
-0.395272
-0.395261
-0.395237
-0.395178
-0.395096
-0.39497
-0.39481
-0.39458
-0.394291
-0.393892
-0.393377
-0.392683
-0.391768
-0.390546
-0.388927
-0.386773
-0.383929
-0.38016
-0.375211
-0.36871
-0.360242
-0.349254
-0.335112
-0.317071
-0.294318
-0.266023
-0.231459
-0.190179
-0.14231
-0.0888364
-0.0317892
0.0259802
0.0830802
0.142218
0.219366
0.314592
0.35473
22.3056
48.9104
62.0818
67.0539
66.814
63.2654
57.851
51.5634
45.09
38.849
33.0816
27.9022
23.3469
19.4024
16.0282
13.1694
10.7664
8.75939
7.09232
5.71396
4.57882
3.64721
2.88492
2.26289
1.75651
1.34515
1.0117
0.741835
0.523839
0.348003
0.206378
0.0924872
0.00100197
-0.0723902
-0.131168
-0.178232
-0.215811
-0.245834
-0.269754
-0.288803
-0.303961
-0.315996
-0.325546
-0.333127
-0.33911
-0.34387
-0.347605
-0.350571
-0.352896
-0.354728
-0.356164
-0.357293
-0.358166
-0.35886
-0.359381
-0.3598
-0.360107
-0.360352
-0.360527
-0.360663
-0.360752
-0.360826
-0.360857
-0.360881
-0.360867
-0.360843
-0.360786
-0.360708
-0.360587
-0.360434
-0.360215
-0.359942
-0.359564
-0.359079
-0.358426
-0.357567
-0.356421
-0.354905
-0.352887
-0.350225
-0.346697
-0.342067
-0.335983
-0.328062
-0.317785
-0.304564
-0.287704
-0.266451
-0.240033
-0.207778
-0.169262
-0.124563
-0.074458
-0.0204569
0.0356562
0.094388
0.160879
0.252615
0.363518
0.394696
20.2495
44.942
57.2467
61.8771
61.6656
58.4058
53.4235
47.6314
41.6621
35.9029
30.5779
25.7942
21.5859
17.9414
14.8235
12.1817
9.96094
8.10608
6.5653
5.29129
4.24202
3.38081
2.67609
2.10098
1.63276
1.25235
0.943957
0.69434
0.492672
0.32998
0.198919
0.0935029
0.00881126
-0.0591472
-0.113582
-0.157181
-0.191999
-0.219823
-0.241995
-0.259655
-0.273709
-0.284872
-0.293729
-0.300766
-0.306316
-0.310737
-0.314205
-0.316962
-0.319121
-0.320825
-0.322159
-0.323209
-0.324019
-0.324666
-0.325149
-0.325538
-0.325821
-0.326048
-0.326207
-0.326332
-0.326412
-0.326478
-0.326504
-0.326525
-0.326509
-0.326486
-0.32643
-0.326355
-0.32624
-0.326096
-0.325889
-0.325633
-0.325278
-0.324827
-0.324218
-0.323422
-0.322358
-0.320954
-0.319085
-0.316622
-0.313357
-0.309074
-0.303447
-0.296122
-0.28662
-0.274402
-0.258825
-0.239198
-0.214813
-0.185053
-0.149518
-0.108239
-0.0617968
-0.0112218
0.0426428
0.101871
0.173443
0.275464
0.396362
0.417614
18.1665
40.7352
52.0742
56.3376
56.1585
53.2034
48.6785
43.4127
37.9808
32.7366
27.8855
23.526
19.6901
16.3678
13.5252
11.1165
9.09156
7.40021
5.99518
4.83335
3.87642
3.09095
2.44816
1.92355
1.49641
1.14934
0.867946
0.640155
0.456095
0.307588
0.187934
0.0916741
0.0143274
-0.0477519
-0.0974845
-0.137328
-0.169152
-0.194589
-0.214862
-0.231012
-0.243865
-0.254079
-0.262182
-0.268624
-0.273704
-0.277753
-0.280929
-0.283455
-0.285433
-0.286995
-0.288216
-0.28918
-0.289921
-0.290515
-0.290956
-0.291312
-0.291569
-0.291775
-0.291918
-0.292031
-0.292099
-0.292158
-0.292178
-0.292195
-0.292177
-0.292154
-0.2921
-0.29203
-0.29192
-0.291786
-0.291592
-0.291355
-0.291026
-0.290611
-0.29005
-0.289321
-0.288347
-0.287063
-0.285355
-0.283106
-0.280125
-0.276216
-0.271081
-0.264398
-0.25573
-0.244589
-0.230389
-0.212505
-0.190294
-0.163198
-0.130843
-0.0932181
-0.0507262
-0.0039783
0.046965
0.105373
0.179451
0.28713
0.41236
0.423909
16.0644
36.3329
46.6063
50.4728
50.3271
47.6906
43.6455
38.9337
34.0693
29.3702
25.0213
21.1121
17.6718
14.6916
12.1415
9.98061
8.16389
6.64637
5.3857
4.34319
3.4845
2.77963
2.20276
1.73191
1.34851
1.03696
0.784341
0.579819
0.414542
0.281171
0.173696
0.0872191
0.0177236
-0.0380667
-0.0827659
-0.118587
-0.147201
-0.170077
-0.188312
-0.202841
-0.214403
-0.223595
-0.230886
-0.236687
-0.241259
-0.244906
-0.247766
-0.250043
-0.251825
-0.253233
-0.254332
-0.255201
-0.255867
-0.256403
-0.256798
-0.257119
-0.257347
-0.257531
-0.257656
-0.257755
-0.257813
-0.257863
-0.257877
-0.25789
-0.25787
-0.257847
-0.257794
-0.257728
-0.257625
-0.257501
-0.257321
-0.257105
-0.256804
-0.256427
-0.255919
-0.25526
-0.254382
-0.253227
-0.251689
-0.249669
-0.24699
-0.243481
-0.238869
-0.232869
-0.225089
-0.215093
-0.202356
-0.18632
-0.166412
-0.142133
-0.113139
-0.0793845
-0.04112
0.00138877
0.048686
0.104843
0.17869
0.287303
0.411461
0.414459
13.9481
31.7711
40.8836
44.3209
44.2071
41.901
38.3556
34.2222
29.9521
25.8247
22.0035
18.5677
15.5435
12.9234
10.6814
8.78135
7.1839
5.84949
4.74089
3.82411
3.06893
2.44901
1.94163
1.52747
1.19021
0.916136
0.693881
0.513926
0.368486
0.25111
0.15651
0.0803807
0.0191936
-0.0299371
-0.0693034
-0.100859
-0.126068
-0.146226
-0.162296
-0.1751
-0.185291
-0.193394
-0.199821
-0.204938
-0.208968
-0.212187
-0.214709
-0.216718
-0.218291
-0.219534
-0.220502
-0.221269
-0.221854
-0.222327
-0.222673
-0.222955
-0.223152
-0.223312
-0.223419
-0.223504
-0.223549
-0.22359
-0.223597
-0.223607
-0.223584
-0.22356
-0.223509
-0.223448
-0.223351
-0.223239
-0.223074
-0.22288
-0.222609
-0.222272
-0.221819
-0.221236
-0.220459
-0.21944
-0.218083
-0.216303
-0.213943
-0.210855
-0.206796
-0.201517
-0.194673
-0.185882
-0.174683
-0.16059
-0.143098
-0.121773
-0.0963027
-0.0666167
-0.0328428
0.00501667
0.0479232
0.100357
0.171206
0.276139
0.394248
0.390485
11.8203
27.0803
34.9452
37.9205
37.8354
35.8694
32.8408
29.3072
25.6544
22.1222
18.8508
15.9087
13.3186
11.0745
9.15399
7.52637
6.15791
5.01474
4.06499
3.27954
2.63253
2.10137
1.66663
1.31174
1.02273
0.787843
0.59736
0.443115
0.318443
0.217817
0.136708
0.0714255
0.0189513
-0.0231917
-0.0569599
-0.0840354
-0.105665
-0.122965
-0.136756
-0.147746
-0.156491
-0.163448
-0.168962
-0.173358
-0.176816
-0.179581
-0.181746
-0.183471
-0.184822
-0.18589
-0.18672
-0.187379
-0.187877
-0.188283
-0.188577
-0.188818
-0.188983
-0.189116
-0.189203
-0.189272
-0.189306
-0.189337
-0.189337
-0.189342
-0.189317
-0.189293
-0.189243
-0.189186
-0.189098
-0.188996
-0.188848
-0.188677
-0.188437
-0.188144
-0.187749
-0.187245
-0.186572
-0.185695
-0.184528
-0.183
-0.180974
-0.178325
-0.174844
-0.170319
-0.164453
-0.15692
-0.147327
-0.135259
-0.120283
-0.102031
-0.0802272
-0.0547875
-0.025748
0.00706792
0.0448525
0.0921192
0.1573
0.254223
0.361853
0.353481
9.68345
22.2866
28.828
31.3103
31.2497
29.6315
27.1342
24.2184
21.2027
18.2854
15.5828
13.1517
11.0112
9.15641
7.56902
6.22368
5.09251
4.14754
3.36244
2.71314
2.17826
1.73914
1.37972
1.0863
0.84735
0.65313
0.495621
0.368068
0.264963
0.181738
0.114648
0.0606415
0.0172283
-0.0176444
-0.0455857
-0.0679953
-0.0858965
-0.100216
-0.11163
-0.120727
-0.127964
-0.133723
-0.138284
-0.141926
-0.144785
-0.147075
-0.148865
-0.150293
-0.15141
-0.152294
-0.152979
-0.153524
-0.153931
-0.154267
-0.154505
-0.154702
-0.154834
-0.154939
-0.155005
-0.155059
-0.155079
-0.155101
-0.155093
-0.155093
-0.155065
-0.155041
-0.154993
-0.154941
-0.15486
-0.15477
-0.15464
-0.154492
-0.154286
-0.154038
-0.153703
-0.15328
-0.152718
-0.151988
-0.151017
-0.14975
-0.148071
-0.145879
-0.142998
-0.139255
-0.134401
-0.128173
-0.120242
-0.110268
-0.0978948
-0.0828163
-0.0648024
-0.0437639
-0.0196775
0.00773079
0.0397086
0.0804596
0.137513
0.22253
0.315865
0.305151
7.53919
17.4128
22.5673
24.5291
24.4882
23.2239
21.2694
18.9863
16.6238
14.3378
12.2195
10.3136
8.63544
7.18117
5.93649
4.88154
3.99453
3.25351
2.63784
2.12865
1.7092
1.36483
1.08295
0.852827
0.665422
0.51309
0.389553
0.289503
0.208627
0.143341
0.0907079
0.0483348
0.0142716
-0.0130958
-0.0350203
-0.0526095
-0.066657
-0.0778949
-0.0868516
-0.0939899
-0.0996654
-0.104184
-0.107758
-0.110616
-0.112855
-0.114651
-0.116053
-0.117172
-0.118047
-0.118739
-0.119272
-0.119699
-0.120012
-0.120273
-0.120454
-0.120605
-0.120702
-0.120778
-0.120823
-0.120859
-0.120867
-0.120879
-0.120863
-0.120857
-0.120827
-0.120802
-0.120756
-0.120708
-0.120636
-0.120559
-0.120447
-0.120324
-0.120152
-0.11995
-0.119678
-0.11934
-0.11889
-0.118312
-0.117544
-0.116545
-0.115223
-0.113501
-0.111237
-0.108299
-0.104489
-0.0996023
-0.0933808
-0.0855591
-0.0758575
-0.0640374
-0.0499146
-0.0334075
-0.0144624
0.00721837
0.0327821
0.0658248
0.112598
0.182367
0.258259
0.247357
5.38921
12.479
16.1968
17.6152
17.5897
16.6836
15.2811
13.642
11.9455
10.3034
8.78156
7.41218
6.20624
5.16116
4.26666
3.50849
2.87101
2.33843
1.89594
1.52999
1.22852
0.981022
0.778428
0.613038
0.47835
0.368864
0.280079
0.20817
0.150042
0.103118
0.0652868
0.0348273
0.0103416
-0.00933566
-0.0250937
-0.0377408
-0.0478359
-0.0559131
-0.0623472
-0.0674749
-0.0715475
-0.0747923
-0.0773516
-0.0794042
-0.0810059
-0.0822942
-0.083296
-0.0840972
-0.0847212
-0.085216
-0.0855928
-0.0858976
-0.0861131
-0.086298
-0.086419
-0.0865227
-0.0865838
-0.0866306
-0.0866532
-0.0866716
-0.0866657
-0.0866672
-0.086643
-0.0866322
-0.0865995
-0.0865734
-0.0865301
-0.0864865
-0.0864238
-0.0863589
-0.0862655
-0.0861684
-0.0860319
-0.0858778
-0.0856699
-0.0854174
-0.0850839
-0.0846601
-0.0840993
-0.0833758
-0.082418
-0.0811766
-0.0795444
-0.0774299
-0.0746858
-0.07117
-0.0666942
-0.0610699
-0.0540949
-0.0455989
-0.0354472
-0.0235754
-0.00992374
0.00576629
0.0244128
0.0487631
0.0834955
0.135325
0.19131
0.182086
3.23513
7.50365
9.74873
10.6068
10.593
10.0483
9.20418
8.21736
7.19576
6.20679
5.2901
4.46516
3.73862
3.10897
2.57003
2.11321
1.72912
1.40823
1.14162
0.921132
0.739501
0.590391
0.468337
0.368703
0.287575
0.221621
0.168151
0.124842
0.089837
0.0615788
0.0387971
0.020453
0.00570887
-0.00614486
-0.0156286
-0.0232457
-0.0293173
-0.0341764
-0.0380412
-0.0411209
-0.0435605
-0.045507
-0.0470324
-0.0482634
-0.0492146
-0.0499848
-0.0505785
-0.0510548
-0.051423
-0.0517159
-0.0519328
-0.0521131
-0.0522293
-0.0523358
-0.0523955
-0.0524505
-0.0524753
-0.0524918
-0.0524916
-0.0524918
-0.0524722
-0.0524632
-0.0524308
-0.0524145
-0.0523791
-0.0523523
-0.0523116
-0.0522725
-0.0522191
-0.0521673
-0.0520932
-0.0520222
-0.0519216
-0.0518162
-0.0516737
-0.0515089
-0.051293
-0.0510264
-0.0506763
-0.050232
-0.0496449
-0.0488916
-0.0479003
-0.0466221
-0.0449609
-0.0428369
-0.040133
-0.0367383
-0.0325292
-0.0274044
-0.0212814
-0.0141201
-0.00587418
0.0036291
0.0149825
0.0299062
0.0512933
0.0832095
0.117525
0.111413
1.07859
2.5038
3.25456
3.54176
3.53747
3.3557
3.07389
2.7443
2.40305
2.07266
1.76637
1.49069
1.24786
1.0374
0.857259
0.704546
0.576168
0.468905
0.379802
0.306127
0.245448
0.195647
0.154888
0.121628
0.0945664
0.0725608
0.0547443
0.0403105
0.0286534
0.0192448
0.011662
0.00555501
0.000651647
-0.0032979
-0.00644214
-0.00897625
-0.0109814
-0.0125879
-0.0138551
-0.0148643
-0.0156525
-0.0162862
-0.016766
-0.0171655
-0.0174585
-0.0177043
-0.0178848
-0.0180322
-0.0181411
-0.0182295
-0.0182844
-0.0183385
-0.0183543
-0.0183814
-0.018379
-0.0183843
-0.0183723
-0.0183584
-0.0183349
-0.0183167
-0.018283
-0.0182637
-0.0182231
-0.0182013
-0.0181632
-0.0181358
-0.0180978
-0.0180635
-0.0180196
-0.017981
-0.0179266
-0.0178822
-0.0178179
-0.0177617
-0.0176853
-0.017609
-0.017512
-0.0174039
-0.0172665
-0.017104
-0.0168909
-0.0166301
-0.0162855
-0.0158512
-0.0152828
-0.0145633
-0.0136468
-0.012501
-0.0110814
-0.00935619
-0.00729655
-0.00489159
-0.00211998
0.00107567
0.00490333
0.00994764
0.0171879
0.027988
0.0395753
0.0374755
-1.07877
-2.50412
-3.25493
-3.54211
-3.53774
-3.35593
-3.07421
-2.74492
-2.40402
-2.074
-1.76813
-1.49295
-1.25063
-1.04064
-0.860904
-0.70859
-0.580478
-0.47346
-0.384517
-0.31093
-0.250285
-0.200471
-0.159682
-0.126361
-0.0991873
-0.0771065
-0.0591568
-0.044623
-0.0328567
-0.0233547
-0.0156889
-0.00951798
-0.00454733
-0.000565478
0.00265154
0.00521814
0.00729394
0.00895157
0.0102911
0.01136
0.0122293
0.0129132
0.0134828
0.013918
0.014286
0.0145668
0.0148012
0.0149841
0.0151356
0.0152526
0.0153607
0.0154334
0.0155182
0.0155708
0.0156356
0.0156804
0.0157293
0.0157736
0.0158203
0.0158571
0.015905
0.0159346
0.0159832
0.0160104
0.0160512
0.0160792
0.0161143
0.0161436
0.0161779
0.0162029
0.0162375
0.0162551
0.016283
0.0162898
0.0162998
0.0162872
0.016265
0.0162141
0.0161384
0.0160182
0.0158562
0.0156232
0.0153196
0.0149077
0.0143801
0.0136911
0.012815
0.0117058
0.0103282
0.00864424
0.00662893
0.00426232
0.00153655
-0.00161629
-0.00539297
-0.0103812
-0.0175581
-0.0282785
-0.0397729
-0.0375537
-3.23531
-7.50396
-9.7491
-10.6071
-10.5933
-10.0485
-9.2045
-8.21798
-7.19674
-6.20814
-5.29186
-4.46742
-3.7414
-3.11222
-2.57368
-2.11726
-1.73343
-1.41278
-1.14633
-0.925932
-0.744335
-0.595212
-0.473128
-0.373431
-0.292192
-0.226164
-0.172562
-0.129153
-0.0940389
-0.0656878
-0.0428236
-0.0244156
-0.00960379
0.00228299
0.0118395
0.0194891
0.0256315
0.0305414
0.0344782
0.0376176
0.0401381
0.0421348
0.0437494
0.0450162
0.0460425
0.0468479
0.0474957
0.0480075
0.0484185
0.04874
0.0490105
0.0492096
0.0493945
0.0495263
0.049653
0.0497478
0.0498337
0.049908
0.0499777
0.0500331
0.0500952
0.050135
0.0501912
0.0502237
0.0502671
0.0502956
0.0503276
0.0503517
0.0503763
0.0503876
0.0504024
0.0503931
0.0503847
0.0503423
0.050286
0.0501849
0.0500437
0.0498345
0.0495464
0.0491447
0.048609
0.047884
0.0469345
0.0456796
0.0440596
0.0419665
0.0393034
0.0359458
0.0317791
0.0266956
0.020617
0.0134943
0.00529442
-0.00416609
-0.0154684
-0.0303361
-0.0516599
-0.0834967
-0.11772
-0.11149
-5.38937
-12.4793
-16.1972
-17.6155
-17.5899
-16.6839
-15.2815
-13.6427
-11.9465
-10.3048
-8.78335
-7.41447
-6.20904
-5.16442
-4.27032
-3.51254
-2.87532
-2.34299
-1.90066
-1.53479
-1.23335
-0.985837
-0.783211
-0.617758
-0.482961
-0.373401
-0.284485
-0.212478
-0.154242
-0.107225
-0.0693125
-0.0387891
-0.014235
0.00547672
0.0213077
0.0339872
0.0441534
0.0522806
0.0587864
0.0639734
0.0681268
0.0714216
0.0740689
0.0761578
0.0778347
0.0791585
0.0802149
0.0810515
0.0817189
0.0822422
0.082673
0.0829972
0.0832807
0.0834905
0.0836781
0.0838224
0.083945
0.0840488
0.0841411
0.0842145
0.0842907
0.0843405
0.0844041
0.0844417
0.0844875
0.0845163
0.0845452
0.0845638
0.0845786
0.0845763
0.0845714
0.0845354
0.0844909
0.0843998
0.0842779
0.0840891
0.0838301
0.083464
0.0829659
0.0822855
0.0813799
0.0801677
0.078579
0.0764892
0.0737873
0.070303
0.0658689
0.0602829
0.0533509
0.0448962
0.0347894
0.0229564
0.00935126
-0.00629609
-0.0248915
-0.0491857
-0.0838548
-0.135605
-0.1915
-0.182161
-7.53934
-17.4131
-22.5677
-24.5294
-24.4885
-23.2242
-21.2698
-18.9869
-16.6249
-14.3392
-12.2213
-10.316
-8.63827
-7.18445
-5.94017
-4.88561
-3.99886
-3.25807
-2.64255
-2.13345
-1.71402
-1.36963
-1.08772
-0.857537
-0.670023
-0.517619
-0.393952
-0.293807
-0.212823
-0.147445
-0.0947323
-0.0522953
-0.0181629
0.00924096
0.0312387
0.0488602
0.0629792
0.074266
0.083294
0.0904912
0.096247
0.100816
0.104476
0.107371
0.109685
0.111517
0.112974
0.114129
0.115048
0.115769
0.116356
0.116803
0.117183
0.117469
0.117716
0.117908
0.118067
0.1182
0.118314
0.118405
0.118495
0.118554
0.118625
0.118667
0.118715
0.118744
0.11877
0.118783
0.118788
0.118772
0.118748
0.118685
0.118605
0.118466
0.11828
0.118005
0.11763
0.11711
0.116405
0.115451
0.114181
0.11249
0.110272
0.107361
0.103594
0.0987405
0.092562
0.0847801
0.0751223
0.0633438
0.0492665
0.0327987
0.0139006
-0.00773758
-0.03325
-0.0662366
-0.112947
-0.182639
-0.258442
-0.247429
-9.6836
-22.2869
-28.8283
-31.3106
-31.25
-29.6318
-27.1345
-24.2191
-21.2037
-18.2868
-15.5846
-13.154
-11.014
-9.15971
-7.57272
-6.22776
-5.09685
-4.15211
-3.36714
-2.71792
-2.18307
-1.74394
-1.38448
-1.091
-0.851937
-0.657647
-0.500012
-0.372367
-0.269154
-0.185839
-0.118671
-0.0645999
-0.021117
0.0137945
0.0418095
0.0642514
0.0822248
0.0965914
0.108077
0.117233
0.124549
0.130358
0.135003
0.138682
0.141617
0.143943
0.145789
0.147253
0.148415
0.149328
0.150068
0.150634
0.151107
0.151467
0.151771
0.15201
0.152204
0.152365
0.1525
0.152608
0.15271
0.15278
0.152857
0.152903
0.152953
0.152982
0.153004
0.153012
0.153007
0.152978
0.152934
0.152846
0.152731
0.152546
0.152296
0.151937
0.151449
0.150778
0.149872
0.14865
0.147025
0.144866
0.142033
0.13832
0.133512
0.127318
0.119432
0.1095
0.0971712
0.0821347
0.064167
0.0431681
0.0191297
-0.00823624
-0.0401625
-0.0808575
-0.137848
-0.222789
-0.316039
-0.305218
-11.8205
-27.0805
-34.9455
-37.9208
-37.8357
-35.8697
-32.8412
-29.308
-25.6555
-22.1237
-18.8527
-15.9111
-13.3215
-11.0778
-9.15771
-7.53047
-6.16226
-5.01931
-4.06969
-3.28432
-2.63733
-2.10616
-1.67137
-1.31642
-1.0273
-0.792347
-0.60174
-0.447407
-0.322629
-0.221915
-0.140729
-0.0753811
-0.0228371
0.0193474
0.0531897
0.0802977
0.102001
0.119346
0.133208
0.144256
0.153079
0.160086
0.165682
0.170117
0.17365
0.176452
0.178673
0.180434
0.181832
0.182929
0.183814
0.184495
0.185058
0.185489
0.185848
0.186132
0.18636
0.186547
0.186702
0.186826
0.186941
0.187019
0.187102
0.187153
0.187204
0.187233
0.187252
0.187253
0.187239
0.187196
0.187135
0.187022
0.186873
0.186642
0.186331
0.185891
0.185292
0.184476
0.183374
0.181892
0.179924
0.17731
0.173881
0.169389
0.16357
0.156074
0.146527
0.134503
0.119574
0.101363
0.0796073
0.0542076
0.025217
-0.00755674
-0.0452894
-0.0925004
-0.157619
-0.254468
-0.362015
-0.353544
-13.9482
-31.7713
-40.8839
-44.3212
-44.2073
-41.9013
-38.356
-34.223
-29.9532
-25.8262
-22.0055
-18.5702
-15.5464
-12.9268
-10.6851
-8.78547
-7.18826
-5.85406
-4.74559
-3.82887
-3.07372
-2.45377
-1.94635
-1.53213
-1.19477
-0.920624
-0.698249
-0.518211
-0.372667
-0.255204
-0.160529
-0.0843327
-0.0230762
0.0260986
0.0655396
0.0971282
0.122411
0.142614
0.158754
0.171616
0.181882
0.190037
0.196542
0.2017
0.205805
0.20906
0.21164
0.213685
0.215306
0.216579
0.217603
0.218394
0.219042
0.219541
0.219951
0.220277
0.220537
0.22075
0.220924
0.221062
0.221189
0.221275
0.221364
0.221419
0.22147
0.221499
0.221514
0.22151
0.221487
0.221431
0.221352
0.221215
0.221033
0.220759
0.220389
0.21987
0.219166
0.218209
0.216919
0.215188
0.212888
0.209836
0.205833
0.200591
0.193797
0.185046
0.173896
0.159849
0.142405
0.121122
0.0957007
0.0660551
0.0323312
-0.00548634
-0.0483405
-0.100719
-0.171507
-0.276367
-0.394399
-0.390541
-16.0645
-36.3331
-46.6065
-50.4731
-50.3273
-47.6909
-43.646
-38.9345
-34.0705
-29.3718
-25.0234
-21.1146
-17.6748
-14.695
-12.1453
-9.98475
-8.16826
-6.65095
-5.3904
-4.34795
-3.48928
-2.78438
-2.20747
-1.73655
-1.35305
-1.04143
-0.788696
-0.584095
-0.418717
-0.285261
-0.177713
-0.091167
-0.021603
0.034234
0.0790085
0.114863
0.143551
0.166472
0.184777
0.199363
0.210998
0.220242
0.227609
0.233453
0.238098
0.241783
0.244701
0.247014
0.248846
0.250285
0.25144
0.252334
0.253063
0.253626
0.254084
0.25445
0.25474
0.254977
0.255169
0.25532
0.255457
0.255552
0.255644
0.255703
0.255755
0.255784
0.255795
0.255785
0.255753
0.255685
0.255588
0.255429
0.255216
0.254901
0.254474
0.253881
0.253075
0.251984
0.250514
0.248545
0.245929
0.24246
0.237908
0.231948
0.224222
0.214268
0.201582
0.185596
0.165736
0.141501
0.112557
0.0788433
0.0406298
-0.00183722
-0.0490817
-0.105184
-0.17897
-0.287513
-0.411597
-0.414509
-18.1666
-40.7353
-52.0744
-56.3379
-56.1588
-53.2038
-48.679
-43.4135
-37.982
-32.7383
-27.8875
-23.5286
-19.6932
-16.3713
-13.529
-11.1207
-9.09595
-7.40479
-5.99987
-4.83809
-3.88118
-3.09569
-2.45286
-1.92817
-1.50092
-1.1538
-0.872286
-0.644421
-0.460264
-0.311674
-0.191949
-0.0956177
-0.0182038
0.0439246
0.0937331
0.133611
0.16551
0.190991
0.211334
0.227541
0.240464
0.250732
0.258908
0.265394
0.270545
0.274633
0.277867
0.280431
0.282461
0.284055
0.285331
0.286322
0.287125
0.287748
0.288251
0.288654
0.288972
0.28923
0.289439
0.289603
0.289749
0.28985
0.289947
0.290009
0.29006
0.290089
0.290096
0.290082
0.29004
0.289961
0.289848
0.289667
0.289424
0.28907
0.28859
0.287926
0.287025
0.285806
0.284167
0.281972
0.279057
0.275193
0.270121
0.263482
0.254871
0.243777
0.229631
0.211799
0.189638
0.162587
0.130283
0.092699
0.050259
0.00355268
-0.0473374
-0.105692
-0.179709
-0.287321
-0.412482
-0.423953
-20.2496
-44.9421
-57.2468
-61.8773
-61.6659
-58.4062
-53.4241
-47.6323
-41.6634
-35.9046
-30.5801
-25.7968
-21.589
-17.9449
-14.8274
-12.1859
-9.96534
-8.11067
-6.56999
-5.29603
-4.24677
-3.38553
-2.68076
-2.10558
-1.63725
-1.25679
-0.948283
-0.698597
-0.496835
-0.334062
-0.202933
-0.0974422
-0.0126851
0.0553247
0.109836
0.153471
0.188365
0.216233
0.238474
0.256191
0.270312
0.28153
0.290458
0.29754
0.303161
0.307621
0.311148
0.313943
0.316155
0.317893
0.319281
0.32036
0.321232
0.321911
0.322455
0.322891
0.323235
0.323514
0.323738
0.323912
0.324066
0.324174
0.324274
0.324338
0.324389
0.324417
0.32442
0.324401
0.324351
0.324262
0.324133
0.323932
0.323662
0.323271
0.322741
0.322011
0.32102
0.319682
0.317884
0.315478
0.312283
0.308048
0.302489
0.295212
0.285771
0.273604
0.258083
0.238511
0.214177
0.184464
0.148981
0.107743
0.0613537
0.01082
-0.042991
-0.102167
-0.173679
-0.275636
-0.396469
-0.41765
-22.3056
-48.9104
-62.0819
-67.0541
-66.8143
-63.2659
-57.8516
-51.5644
-45.0914
-38.8508
-33.0839
-27.9049
-23.35
-19.406
-16.0321
-13.1736
-10.7708
-8.76398
-7.09701
-5.71869
-4.58356
-3.6519
-2.88958
-2.26747
-1.76099
-1.34957
-1.01601
-0.746082
-0.527996
-0.352082
-0.21039
-0.0964228
-0.00487388
0.0685717
0.127426
0.174528
0.212184
0.242252
0.266241
0.285348
0.300568
0.312661
0.322278
0.329907
0.335957
0.340757
0.344551
0.347557
0.349935
0.351804
0.353294
0.354454
0.355389
0.356118
0.356699
0.357166
0.357532
0.35783
0.358067
0.358252
0.358412
0.358525
0.358628
0.358694
0.358744
0.358771
0.358771
0.358747
0.35869
0.35859
0.358448
0.358228
0.357932
0.357508
0.356931
0.35614
0.355065
0.353618
0.351672
0.349071
0.345616
0.341038
0.335027
0.327158
0.316946
0.303781
0.286979
0.265783
0.239418
0.207212
0.168749
0.124091
0.0740395
0.0200795
-0.0359799
-0.0946596
-0.161094
-0.252767
-0.36361
-0.394726
-24.3206
-52.5897
-66.5371
-71.8325
-71.571
-67.7517
-61.9331
-55.1843
-48.2439
-41.558
-35.383
-29.8395
-24.9651