/*--------------------------------*- C++ -*----------------------------------*\
  =========                 |
  \\      /  F ield         | OpenFOAM: The Open Source CFD Toolbox
   \\    /   O peration     | Website:  https://openfoam.org
    \\  /    A nd           | Version:  7
     \\/     M anipulation  |
\*---------------------------------------------------------------------------*/
FoamFile
{
    version     2.0;
    format      ascii;
    class       surfaceScalarField;
    location    "2";
    object      phi;
}
// * * * * * * * * * * * * * * * * * * * * * * * * * * * * * * * * * * * * * //

dimensions      [0 3 -1 0 0 0 0];

internalField   nonuniform List<scalar> 
7860
(
0.00283433
0.00216566
0.00262121
0.000213127
0.00260885
1.23539e-05
0.00260636
2.49521e-06
0.00260908
-2.72168e-06
0.00260781
1.26642e-06
0.00260672
1.09684e-06
0.00260515
1.56722e-06
0.00260393
1.22026e-06
0.00260285
1.0841e-06
0.00260198
8.66056e-07
0.00260125
7.26797e-07
0.00260066
5.96711e-07
0.00260016
5.0066e-07
0.00259974
4.18223e-07
0.00259938
3.53282e-07
0.00259909
2.99391e-07
0.00259883
2.54391e-07
0.00259861
2.17141e-07
0.00259843
1.85367e-07
0.00259827
1.58259e-07
0.00259813
1.35925e-07
0.00259802
1.15547e-07
0.00259792
9.89382e-08
0.00259783
8.42549e-08
0.00259776
7.14555e-08
0.0025977
6.09655e-08
0.00259765
5.11047e-08
0.00259761
4.3074e-08
0.00259757
3.63714e-08
0.00259754
3.00314e-08
0.00259752
2.5867e-08
0.0025975
2.09757e-08
0.00259748
1.75909e-08
0.00259747
1.439e-08
0.00259745
1.1401e-08
0.00259744
9.69501e-09
0.00259744
7.77009e-09
0.00259743
6.44326e-09
0.00259742
5.64956e-09
0.00259742
3.97651e-09
0.00259742
3.77083e-09
0.00259741
2.5806e-09
0.00259741
2.44261e-09
0.00259741
2.07471e-09
0.00259741
1.55457e-09
0.00259741
1.37628e-09
0.00259741
1.00269e-09
0.00259741
7.1336e-10
0.00259741
8.84574e-10
0.0025974
3.27517e-10
0.0025974
5.33633e-10
0.0025974
3.02178e-11
0.0025974
1.4255e-10
0.0025974
5.21885e-11
0.0025974
1.44765e-10
0.0025974
7.65315e-11
0.0025974
1.32295e-10
0.0025974
-8.51967e-11
0.0025974
1.41353e-10
0.0025974
1.13847e-11
0.0025974
2.38707e-10
0.0025974
9.83645e-11
0.0025974
1.86761e-10
0.0025974
3.98939e-11
0.0025974
2.25536e-10
0.0025974
1.38142e-11
0.0025974
1.75064e-10
0.0025974
-9.2742e-11
0.0025974
2.8683e-11
0.0025974
-1.67861e-11
0.0025974
1.2234e-10
0.0025974
1.49817e-10
0.0025974
2.72093e-10
0.0025974
1.64477e-10
0.0025974
3.95458e-10
0.0025974
2.13868e-10
0.0025974
4.69078e-10
0.0025974
3.01609e-10
0.0025974
4.29804e-10
0.0025974
4.82301e-10
0.0025974
6.94318e-10
0.0025974
1.09118e-09
0.0025974
1.66615e-09
0.00259739
2.37837e-09
0.00259739
3.61059e-09
0.00259739
4.95849e-09
0.00259738
7.24606e-09
0.00259737
1.00572e-08
0.00259735
1.41233e-08
0.00259733
1.95385e-08
0.00259731
2.60441e-08
0.00259727
3.35042e-08
0.00259724
3.7404e-08
0.0025972
3.33419e-08
0.00259718
2.26096e-08
0.00259708
1.01417e-07
0.00259638
6.95983e-07
0.00259378
2.60231e-06
-1.19031e-06
0.00456763
0.00259803
0.00437535
0.000405409
0.00434654
4.11603e-05
0.00434278
6.25261e-06
0.0043458
-5.73702e-06
0.00434428
2.78868e-06
0.00434266
2.71805e-06
0.00434046
3.76744e-06
0.00433867
3.0061e-06
0.00433709
2.65811e-06
0.00433582
2.13809e-06
0.00433476
1.79254e-06
0.00433388
1.47506e-06
0.00433314
1.23817e-06
0.00433252
1.03511e-06
0.004332
8.74912e-07
0.00433156
7.42532e-07
0.00433118
6.32093e-07
0.00433086
5.40851e-07
0.00433058
4.62893e-07
0.00433034
3.9606e-07
0.00433014
3.4075e-07
0.00432997
2.90501e-07
0.00432982
2.49093e-07
0.00432969
2.12604e-07
0.00432958
1.80627e-07
0.00432948
1.54481e-07
0.00432941
1.30065e-07
0.00432934
1.10047e-07
0.00432928
9.32679e-08
0.00432923
7.73681e-08
0.00432919
6.65317e-08
0.00432916
5.43792e-08
0.00432913
4.56556e-08
0.00432911
3.77324e-08
0.00432909
3.01493e-08
0.00432907
2.56594e-08
0.00432906
2.06327e-08
0.00432905
1.70356e-08
0.00432904
1.47866e-08
0.00432904
1.07348e-08
0.00432903
9.99299e-09
0.00432902
7.16438e-09
0.00432902
6.44706e-09
0.00432902
5.47485e-09
0.00432902
4.04524e-09
0.00432901
3.6117e-09
0.00432901
2.69009e-09
0.00432901
1.95647e-09
0.00432901
2.22845e-09
0.00432901
9.53398e-10
0.00432901
1.34173e-09
0.00432901
3.22315e-10
0.00432901
4.67323e-10
0.00432901
2.6279e-10
0.00432901
2.98839e-10
0.00432901
1.21811e-10
0.00432901
2.33562e-10
0.00432901
-1.86564e-10
0.00432901
2.86095e-10
0.00432901
1.56617e-11
0.00432901
4.18669e-10
0.00432901
1.67245e-10
0.00432901
3.09682e-10
0.004329
1.23225e-12
0.004329
3.43425e-10
0.004329
-1.16589e-10
0.004329
2.43894e-10
0.004329
-2.34734e-10
0.004329
5.55758e-11
0.004329
5.55401e-11
0.004329
3.06638e-10
0.004329
3.86429e-10
0.004329
6.06172e-10
0.004329
3.6938e-10
0.004329
8.40723e-10
0.004329
4.27504e-10
0.004329
9.38824e-10
0.004329
6.42514e-10
0.004329
9.64827e-10
0.004329
1.24452e-09
0.004329
1.78249e-09
0.004329
2.78724e-09
0.00432899
4.18112e-09
0.00432899
5.97587e-09
0.00432898
9.00607e-09
0.00432898
1.24257e-08
0.00432897
1.80738e-08
0.00432895
2.51894e-08
0.00432893
3.53809e-08
0.0043289
4.9092e-08
0.00432886
6.57539e-08
0.00432881
8.58121e-08
0.00432874
9.9647e-08
0.00432867
1.04565e-07
0.00432858
1.11252e-07
0.00432827
4.16985e-07
0.00432694
2.02816e-06
0.00432236
7.18202e-06
7.90986e-06
0.00507201
0.00252602
0.00495544
0.000521983
0.00492276
7.38363e-05
0.00492051
8.50702e-06
0.00492235
-7.57494e-06
0.0049212
3.93346e-06
0.00491954
4.38277e-06
0.00491747
5.83377e-06
0.00491572
4.75939e-06
0.00491419
4.18226e-06
0.00491295
3.38365e-06
0.00491191
2.83232e-06
0.00491105
2.33438e-06
0.00491033
1.95771e-06
0.00490972
1.63904e-06
0.00490921
1.3857e-06
0.00490878
1.17733e-06
0.00490841
1.00363e-06
0.00490809
8.6027e-07
0.00490781
7.37755e-07
0.00490758
6.32414e-07
0.00490737
5.44934e-07
0.0049072
4.65754e-07
0.00490705
4.00013e-07
0.00490692
3.42232e-07
0.00490681
2.91392e-07
0.00490671
2.49843e-07
0.00490663
2.11213e-07
0.00490656
1.7928e-07
0.0049065
1.5243e-07
0.00490645
1.27004e-07
0.00490641
1.09188e-07
0.00490638
8.9846e-08
0.00490635
7.55152e-08
0.00490632
6.2814e-08
0.0049063
5.04909e-08
0.00490628
4.29522e-08
0.00490627
3.46849e-08
0.00490626
2.86163e-08
0.00490625
2.47092e-08
0.00490624
1.8351e-08
0.00490623
1.68087e-08
0.00490623
1.24361e-08
0.00490622
1.08557e-08
0.00490622
9.23155e-09
0.00490622
6.7906e-09
0.00490622
6.03719e-09
0.00490621
4.55294e-09
0.00490621
3.36224e-09
0.00490621
3.63884e-09
0.00490621
1.76092e-09
0.00490621
2.21437e-09
0.00490621
8.25048e-10
0.00490621
8.82294e-10
0.00490621
5.83489e-10
0.00490621
4.58892e-10
0.00490621
1.8477e-10
0.00490621
3.29336e-10
0.00490621
-2.08427e-10
0.00490621
4.57745e-10
0.00490621
1.15908e-10
0.00490621
6.1692e-10
0.00490621
3.3254e-10
0.00490621
4.82021e-10
0.00490621
4.98906e-11
0.00490621
4.46724e-10
0.00490621
-2.22346e-10
0.00490621
2.60156e-10
0.00490621
-3.44112e-10
0.00490621
5.89037e-11
0.00490621
1.55267e-10
0.0049062
4.80173e-10
0.0049062
6.51178e-10
0.0049062
9.5036e-10
0.0049062
6.49585e-10
0.0049062
1.30714e-09
0.0049062
7.32046e-10
0.0049062
1.41382e-09
0.0049062
1.06102e-09
0.0049062
1.53861e-09
0.0049062
2.09108e-09
0.0049062
2.94243e-09
0.0049062
4.54839e-09
0.00490619
6.74038e-09
0.00490619
9.64622e-09
0.00490618
1.44526e-08
0.00490618
2.00032e-08
0.00490617
2.89564e-08
0.00490615
4.0423e-08
0.00490613
5.67401e-08
0.0049061
7.88864e-08
0.00490606
1.06187e-07
0.004906
1.40675e-07
0.00490593
1.6934e-07
0.00490584
2.00361e-07
0.00490569
2.56712e-07
0.00490522
8.91008e-07
0.0049036
3.64811e-06
0.00489775
1.30248e-05
2.27387e-05
0.0052099
0.00231612
0.00513958
0.000592307
0.0051125
0.000100915
0.00511137
9.64105e-06
0.00511245
-8.66183e-06
0.00511162
4.76281e-06
0.00511016
5.84582e-06
0.00510842
7.57238e-06
0.00510691
6.27368e-06
0.0051056
5.49133e-06
0.00510452
4.46119e-06
0.00510362
3.73051e-06
0.00510288
3.07793e-06
0.00510225
2.58129e-06
0.00510173
2.16226e-06
0.00510129
1.82873e-06
0.00510091
1.55533e-06
0.00510059
1.32758e-06
0.00510031
1.13979e-06
0.00510007
9.79307e-07
0.00509986
8.40963e-07
0.00509968
7.25785e-07
0.00509952
6.21727e-07
0.00509939
5.34906e-07
0.00509927
4.58678e-07
0.00509917
3.91358e-07
0.00509908
3.36359e-07
0.00509901
2.85471e-07
0.00509895
2.42992e-07
0.00509889
2.07214e-07
0.00509884
1.73263e-07
0.0050988
1.49004e-07
0.00509877
1.23229e-07
0.00509874
1.03721e-07
0.00509872
8.67188e-08
0.0050987
7.00721e-08
0.00509868
5.96138e-08
0.00509867
4.83249e-08
0.00509866
3.98532e-08
0.00509865
3.43337e-08
0.00509864
2.59283e-08
0.00509864
2.351e-08
0.00509863
1.77674e-08
0.00509863
1.51832e-08
0.00509862
1.28845e-08
0.00509862
9.44362e-09
0.00509862
8.33794e-09
0.00509862
6.35352e-09
0.00509861
4.72537e-09
0.00509861
4.97329e-09
0.00509861
2.62247e-09
0.00509861
3.09967e-09
0.00509861
1.4744e-09
0.00509861
1.38408e-09
0.00509861
9.84853e-10
0.00509861
6.39852e-10
0.00509861
2.65664e-10
0.00509861
4.46959e-10
0.00509861
-1.55865e-10
0.00509861
6.69813e-10
0.00509861
2.77937e-10
0.00509861
8.23855e-10
0.00509861
5.4513e-10
0.00509861
6.82448e-10
0.00509861
1.4507e-10
0.00509861
5.1574e-10
0.00509861
-3.42451e-10
0.00509861
2.16841e-10
0.00509861
-4.54744e-10
0.00509861
3.82998e-11
0.00509861
2.43271e-10
0.00509861
6.27566e-10
0.0050986
9.04435e-10
0.0050986
1.27983e-09
0.0050986
9.63024e-10
0.0050986
1.75642e-09
0.0050986
1.05775e-09
0.0050986
1.84376e-09
0.0050986
1.47321e-09
0.0050986
2.08373e-09
0.0050986
2.90458e-09
0.0050986
4.04019e-09
0.0050986
6.1731e-09
0.00509859
9.06032e-09
0.00509859
1.29578e-08
0.00509859
1.93264e-08
0.00509858
2.67895e-08
0.00509857
3.86437e-08
0.00509855
5.39916e-08
0.00509854
7.57705e-08
0.00509851
1.05589e-07
0.00509847
1.42949e-07
0.00509842
1.92447e-07
0.00509835
2.39976e-07
0.00509824
3.11297e-07
0.00509805
4.41564e-07
0.00509749
1.4586e-06
0.00509583
5.3014e-06
0.00508957
1.92888e-05
3.78145e-05
0.00523328
0.00208283
0.00519418
0.000631415
0.00517352
0.000121571
0.0051732
9.96609e-06
0.00517381
-9.28131e-06
0.00517329
5.28756e-06
0.00517211
7.02986e-06
0.00517074
8.94107e-06
0.00516952
7.4893e-06
0.00516847
6.54141e-06
0.0051676
5.33072e-06
0.00516687
4.45612e-06
0.00516627
3.67974e-06
0.00516577
3.08385e-06
0.00516535
2.58604e-06
0.00516499
2.18882e-06
0.00516468
1.86353e-06
0.00516441
1.59262e-06
0.00516418
1.36932e-06
0.00516399
1.17857e-06
0.00516381
1.01381e-06
0.00516366
8.76342e-07
0.00516353
7.52278e-07
0.00516342
6.48325e-07
0.00516332
5.57168e-07
0.00516324
4.76374e-07
0.00516316
4.10347e-07
0.0051631
3.49601e-07
0.00516304
2.98256e-07
0.005163
2.55052e-07
0.00516296
2.13951e-07
0.00516292
1.84084e-07
0.00516289
1.5289e-07
0.00516287
1.28828e-07
0.00516284
1.0817e-07
0.00516283
8.7757e-08
0.00516281
7.46617e-08
0.0051628
6.06959e-08
0.00516279
5.01031e-08
0.00516278
4.31426e-08
0.00516277
3.30624e-08
0.00516277
2.97115e-08
0.00516276
2.28363e-08
0.00516276
1.92032e-08
0.00516275
1.6317e-08
0.00516275
1.19674e-08
0.00516275
1.05217e-08
0.00516275
8.05852e-09
0.00516275
6.02459e-09
0.00516275
6.17632e-09
0.00516275
3.50818e-09
0.00516274
3.93711e-09
0.00516274
2.18638e-09
0.00516274
1.8545e-09
0.00516274
1.37812e-09
0.00516274
8.00505e-10
0.00516274
3.8288e-10
0.00516274
5.80924e-10
0.00516274
-4.18323e-11
0.00516274
8.6912e-10
0.00516274
4.81691e-10
0.00516274
1.02308e-09
0.00516274
8.08563e-10
0.00516274
8.86853e-10
0.00516274
2.7957e-10
0.00516274
5.51204e-10
0.00516274
-4.32023e-10
0.00516274
1.6379e-10
0.00516274
-5.05922e-10
0.00516274
2.04241e-11
0.00516274
3.47519e-10
0.00516274
7.65193e-10
0.00516274
1.19231e-09
0.00516274
1.62599e-09
0.00516274
1.34058e-09
0.00516274
2.19092e-09
0.00516274
1.42053e-09
0.00516274
2.2469e-09
0.00516273
1.90157e-09
0.00516273
2.58531e-09
0.00516273
3.64012e-09
0.00516273
4.98903e-09
0.00516273
7.57193e-09
0.00516273
1.10184e-08
0.00516273
1.5756e-08
0.00516272
2.34072e-08
0.00516272
3.2477e-08
0.00516271
4.67097e-08
0.0051627
6.53206e-08
0.00516268
9.16804e-08
0.00516266
1.28121e-07
0.00516262
1.74556e-07
0.00516258
2.38884e-07
0.00516251
3.08017e-07
0.00516239
4.29153e-07
0.00516219
6.48582e-07
0.0051616
2.04268e-06
0.00516003
6.86821e-06
0.00515415
2.51727e-05
5.09455e-05
0.00522259
0.00186024
0.00520655
0.000647459
0.00519182
0.000136294
0.00519204
9.74667e-06
0.00519238
-9.61982e-06
0.00519212
5.54369e-06
0.00519124
7.91589e-06
0.00519024
9.93865e-06
0.00518933
8.39977e-06
0.00518854
7.32713e-06
0.00518789
5.98723e-06
0.00518734
5.00487e-06
0.00518688
4.13637e-06
0.0051865
3.46603e-06
0.00518618
2.90903e-06
0.0051859
2.46414e-06
0.00518566
2.10021e-06
0.00518546
1.79702e-06
0.00518528
1.54719e-06
0.00518513
1.33382e-06
0.00518499
1.14923e-06
0.00518487
9.94954e-07
0.00518477
8.55755e-07
0.00518468
7.38733e-07
0.0051846
6.36227e-07
0.00518453
5.44975e-07
0.00518447
4.70437e-07
0.00518442
4.01669e-07
0.00518438
3.43785e-07
0.00518434
2.9475e-07
0.0051843
2.47953e-07
0.00518427
2.13462e-07
0.00518425
1.77908e-07
0.00518423
1.50035e-07
0.00518421
1.26425e-07
0.00518419
1.0292e-07
0.00518418
8.75776e-08
0.00518417
7.13794e-08
0.00518416
5.89808e-08
0.00518415
5.08126e-08
0.00518415
3.94354e-08
0.00518414
3.51909e-08
0.00518414
2.7424e-08
0.00518413
2.27714e-08
0.00518413
1.93895e-08
0.00518413
1.42563e-08
0.00518413
1.24966e-08
0.00518413
9.62697e-09
0.00518412
7.21031e-09
0.00518412
7.22569e-09
0.00518412
4.33497e-09
0.00518412
4.67022e-09
0.00518412
2.88186e-09
0.00518412
2.26741e-09
0.00518412
1.7324e-09
0.00518412
9.33353e-10
0.00518412
5.0088e-10
0.00518412
7.2183e-10
0.00518412
1.03986e-10
0.00518412
1.06586e-09
0.00518412
7.08998e-10
0.00518412
1.21227e-09
0.00518412
1.09208e-09
0.00518412
1.09147e-09
0.00518412
4.4488e-10
0.00518412
5.79557e-10
0.00518412
-4.95103e-10
0.00518412
1.1599e-10
0.00518412
-5.07334e-10
0.00518412
3.28598e-11
0.00518412
4.80217e-10
0.00518412
9.13498e-10
0.00518412
1.50308e-09
0.00518412
1.98198e-09
0.00518411
1.75126e-09
0.00518411
2.59974e-09
0.00518411
1.77846e-09
0.00518411
2.59562e-09
0.00518411
2.28838e-09
0.00518411
3.00415e-09
0.00518411
4.24881e-09
0.00518411
5.75554e-09
0.00518411
8.70235e-09
0.00518411
1.25772e-08
0.00518411
1.79749e-08
0.0051841
2.6635e-08
0.0051841
3.69665e-08
0.00518409
5.30394e-08
0.00518408
7.42471e-08
0.00518407
1.04268e-07
0.00518405
1.46185e-07
0.00518402
2.00526e-07
0.00518398
2.78936e-07
0.00518392
3.70206e-07
0.0051838
5.4601e-07
0.00518359
8.5901e-07
0.00518302
2.61308e-06
0.00518164
8.24728e-06
0.0051766
3.02177e-05
6.15784e-05
0.00520394
0.0016563
0.00520547
0.000645931
0.00519607
0.000145689
0.00519665
9.17299e-06
0.0051968
-9.77598e-06
0.00519678
5.56883e-06
0.00519618
8.51012e-06
0.00519554
1.05871e-05
0.00519492
9.01637e-06
0.00519439
7.85934e-06
0.00519394
6.43793e-06
0.00519356
5.38287e-06
0.00519324
4.45281e-06
0.00519298
3.73191e-06
0.00519275
3.13469e-06
0.00519256
2.65733e-06
0.00519239
2.26728e-06
0.00519224
1.94215e-06
0.00519212
1.67426e-06
0.00519201
1.44553e-06
0.00519191
1.24735e-06
0.00519182
1.08153e-06
0.00519175
9.31876e-07
0.00519168
8.05721e-07
0.00519162
6.95348e-07
0.00519157
5.96647e-07
0.00519152
5.15993e-07
0.00519148
4.41544e-07
0.00519145
3.78884e-07
0.00519142
3.25666e-07
0.00519139
2.74665e-07
0.00519137
2.36626e-07
0.00519135
1.97796e-07
0.00519133
1.66896e-07
0.00519132
1.41042e-07
0.00519131
1.15137e-07
0.0051913
9.80091e-08
0.00519129
8.00765e-08
0.00519128
6.62301e-08
0.00519127
5.71222e-08
0.00519127
4.47895e-08
0.00519126
3.97664e-08
0.00519126
3.13191e-08
0.00519126
2.57472e-08
0.00519126
2.20046e-08
0.00519125
1.62317e-08
0.00519125
1.41847e-08
0.00519125
1.10004e-08
0.00519125
8.23585e-09
0.00519125
8.09906e-09
0.00519125
5.0597e-09
0.00519125
5.25243e-09
0.00519125
3.49254e-09
0.00519125
2.5829e-09
0.00519125
2.02088e-09
0.00519125
1.03702e-09
0.00519125
6.06174e-10
0.00519125
8.61248e-10
0.00519125
2.58775e-10
0.00519125
1.25991e-09
0.00519125
9.61424e-10
0.00519124
1.40436e-09
0.00519124
1.39414e-09
0.00519124
1.30221e-09
0.00519124
6.49579e-10
0.00519124
6.37687e-10
0.00519124
-5.08684e-10
0.00519124
9.5455e-11
0.00519124
-4.65219e-10
0.00519124
7.48405e-11
0.00519124
6.34944e-10
0.00519124
1.07215e-09
0.00519124
1.82603e-09
0.00519124
2.33899e-09
0.00519124
2.1786e-09
0.00519124
2.98697e-09
0.00519124
2.13052e-09
0.00519124
2.90004e-09
0.00519124
2.62367e-09
0.00519124
3.32736e-09
0.00519124
4.70631e-09
0.00519124
6.31399e-09
0.00519124
9.54278e-09
0.00519123
1.37263e-08
0.00519123
1.9611e-08
0.00519123
2.89227e-08
0.00519123
4.02743e-08
0.00519122
5.76386e-08
0.00519122
8.07777e-08
0.00519121
1.1353e-07
0.00519119
1.59728e-07
0.00519117
2.20645e-07
0.00519114
3.11752e-07
0.00519108
4.24801e-07
0.00519098
6.552e-07
0.00519077
1.05915e-06
0.00519026
3.13069e-06
0.00518912
9.38035e-06
0.00518513
3.42137e-05
6.96155e-05
0.00518536
0.00147094
0.00520053
0.000630764
0.00519585
0.00015037
0.00519664
8.38943e-06
0.00519665
-9.79467e-06
0.00519682
5.40558e-06
0.0051965
8.8302e-06
0.00519617
1.09154e-05
0.00519583
9.35801e-06
0.00519553
8.15452e-06
0.00519527
6.69476e-06
0.00519506
5.59988e-06
0.00519487
4.63667e-06
0.00519472
3.88735e-06
0.00519458
3.26792e-06
0.00519447
2.77236e-06
0.00519437
2.36789e-06
0.00519428
2.03046e-06
0.0051942
1.75241e-06
0.00519413
1.51508e-06
0.00519407
1.30912e-06
0.00519402
1.13671e-06
0.00519397
9.81e-07
0.00519392
8.49456e-07
0.00519389
7.34534e-07
0.00519385
6.31286e-07
0.00519382
5.46872e-07
0.00519379
4.68942e-07
0.00519377
4.03235e-07
0.00519375
3.47419e-07
0.00519373
2.93698e-07
0.00519371
2.53247e-07
0.0051937
2.12232e-07
0.00519369
1.79127e-07
0.00519368
1.5174e-07
0.00519367
1.24136e-07
0.00519366
1.05731e-07
0.00519365
8.65873e-08
0.00519365
7.16682e-08
0.00519364
6.18958e-08
0.00519364
4.89186e-08
0.00519363
4.32027e-08
0.00519363
3.43861e-08
0.00519363
2.80431e-08
0.00519363
2.40449e-08
0.00519363
1.77834e-08
0.00519363
1.54777e-08
0.00519362
1.20963e-08
0.00519362
9.03712e-09
0.00519362
8.76248e-09
0.00519362
5.64127e-09
0.00519362
5.65631e-09
0.00519362
3.98032e-09
0.00519362
2.79144e-09
0.00519362
2.2367e-09
0.00519362
1.11297e-09
0.00519362
6.8479e-10
0.00519362
9.88931e-10
0.00519362
4.04201e-10
0.00519362
1.44839e-09
0.00519362
1.23278e-09
0.00519362
1.59919e-09
0.00519362
1.70327e-09
0.00519362
1.51578e-09
0.00519362
8.90812e-10
0.00519362
7.43652e-10
0.00519362
-4.66995e-10
0.00519362
1.05291e-10
0.00519362
-3.99867e-10
0.00519362
1.31447e-10
0.00519362
7.90277e-10
0.00519362
1.22107e-09
0.00519362
2.12982e-09
0.00519362
2.66731e-09
0.00519362
2.59074e-09
0.00519362
3.34261e-09
0.00519362
2.4639e-09
0.00519361
3.15927e-09
0.00519361
2.895e-09
0.00519361
3.54968e-09
0.00519361
5.00385e-09
0.00519361
6.66161e-09
0.00519361
1.00845e-08
0.00519361
1.44626e-08
0.00519361
2.06774e-08
0.00519361
3.03568e-08
0.00519361
4.23052e-08
0.0051936
6.05673e-08
0.0051936
8.49672e-08
0.00519359
1.19529e-07
0.00519358
1.68775e-07
0.00519357
2.34789e-07
0.00519354
3.36688e-07
0.0051935
4.69672e-07
0.0051934
7.50479e-07
0.00519323
1.23589e-06
0.00519279
3.56428e-06
0.00519194
1.02347e-05
0.00518908
3.70737e-05
7.50838e-05
0.00516893
0.00130201
0.00519488
0.000604818
0.00519434
0.000150907
0.00519523
7.50456e-06
0.00519512
-9.6894e-06
0.00519543
5.09817e-06
0.00519536
8.89924e-06
0.00519532
1.09539e-05
0.00519523
9.44644e-06
0.00519515
8.23108e-06
0.00519508
6.77157e-06
0.00519501
5.66701e-06
0.00519495
4.6966e-06
0.0051949
3.93931e-06
0.00519485
3.3143e-06
0.00519481
2.81381e-06
0.00519477
2.40571e-06
0.00519474
2.06486e-06
0.00519471
1.78398e-06
0.00519468
1.5443e-06
0.00519465
1.33593e-06
0.00519463
1.16154e-06
0.0051946
1.00387e-06
0.00519458
8.70444e-07
0.00519456
7.54093e-07
0.00519455
6.49062e-07
0.00519453
5.63159e-07
0.00519452
4.83775e-07
0.0051945
4.16723e-07
0.00519449
3.59823e-07
0.00519448
3.04831e-07
0.00519447
2.6312e-07
0.00519446
2.2102e-07
0.00519445
1.86563e-07
0.00519445
1.58351e-07
0.00519444
1.29758e-07
0.00519444
1.10596e-07
0.00519443
9.07825e-08
0.00519443
7.51714e-08
0.00519443
6.49937e-08
0.00519442
5.16851e-08
0.00519442
4.54524e-08
0.00519442
3.65223e-08
0.00519442
2.95554e-08
0.00519442
2.54134e-08
0.00519442
1.88081e-08
0.00519442
1.62888e-08
0.00519441
1.28349e-08
0.00519441
9.55829e-09
0.00519441
9.17928e-09
0.00519441
6.05201e-09
0.00519441
5.86573e-09
0.00519441
4.3272e-09
0.00519441
2.89236e-09
0.00519441
2.37848e-09
0.00519441
1.16208e-09
0.00519441
7.2946e-10
0.00519441
1.09772e-09
0.00519441
5.27569e-10
0.00519441
1.61903e-09
0.00519441
1.50973e-09
0.00519441
1.78556e-09
0.00519441
2.00422e-09
0.00519441
1.71904e-09
0.00519441
1.15479e-09
0.00519441
8.97423e-10
0.00519441
-3.71795e-10
0.00519441
1.44819e-10
0.00519441
-3.25412e-10
0.00519441
1.87945e-10
0.00519441
9.28446e-10
0.00519441
1.34076e-09
0.00519441
2.38786e-09
0.00519441
2.93701e-09
0.00519441
2.95756e-09
0.00519441
3.65015e-09
0.00519441
2.7643e-09
0.00519441
3.36998e-09
0.00519441
3.09855e-09
0.00519441
3.67467e-09
0.00519441
5.14716e-09
0.00519441
6.8072e-09
0.00519441
1.03309e-08
0.0051944
1.47994e-08
0.0051944
2.11393e-08
0.0051944
3.09776e-08
0.0051944
4.3217e-08
0.0051944
6.18652e-08
0.0051944
8.68714e-08
0.0051944
1.2234e-07
0.00519439
1.73378e-07
0.00519438
2.42872e-07
0.00519437
3.53134e-07
0.00519433
5.02833e-07
0.00519426
8.26354e-07
0.00519411
1.37832e-06
0.00519379
3.89181e-06
0.00519323
1.07915e-05
0.00519153
3.87747e-05
7.80787e-05
0.00515491
0.00114709
0.00518949
0.000570241
0.00519259
0.000147807
0.0051935
6.59399e-06
0.00519327
-9.45769e-06
0.00519368
4.68825e-06
0.00519383
8.74264e-06
0.00519406
1.07326e-05
0.0051942
9.30422e-06
0.00519432
8.10803e-06
0.00519441
6.68295e-06
0.00519448
5.59597e-06
0.00519454
4.64186e-06
0.00519458
3.89525e-06
0.00519461
3.27986e-06
0.00519464
2.78657e-06
0.00519466
2.38472e-06
0.00519468
2.0486e-06
0.00519469
1.77163e-06
0.0051947
1.53535e-06
0.00519471
1.32951e-06
0.00519471
1.15739e-06
0.00519471
1.00155e-06
0.00519471
8.69487e-07
0.00519471
7.54589e-07
0.00519471
6.5038e-07
0.00519471
5.65144e-07
0.00519471
4.86216e-07
0.00519471
4.19441e-07
0.0051947
3.62888e-07
0.0051947
3.08007e-07
0.0051947
2.66172e-07
0.0051947
2.24069e-07
0.00519469
1.8914e-07
0.00519469
1.60813e-07
0.00519469
1.31936e-07
0.00519469
1.12542e-07
0.00519468
9.25954e-08
0.00519468
7.66812e-08
0.00519468
6.63448e-08
0.00519468
5.30172e-08
0.00519468
4.64471e-08
0.00519468
3.765e-08
0.00519468
3.0249e-08
0.00519468
2.60705e-08
0.00519468
1.92631e-08
0.00519468
1.65787e-08
0.00519468
1.31586e-08
0.00519468
9.76057e-09
0.00519468
9.33117e-09
0.00519468
6.26869e-09
0.00519468
5.87387e-09
0.00519468
4.52824e-09
0.00519468
2.8918e-09
0.00519468
2.44765e-09
0.00519468
1.18504e-09
0.00519468
7.36876e-10
0.00519468
1.18236e-09
0.00519468
6.18398e-10
0.00519468
1.75258e-09
0.00519468
1.76794e-09
0.00519468
1.94063e-09
0.00519468
2.27275e-09
0.00519467
1.88852e-09
0.00519467
1.41439e-09
0.00519467
1.08216e-09
0.00519467
-2.33976e-10
0.00519467
2.11851e-10
0.00519467
-2.48022e-10
0.00519467
2.38929e-10
0.00519467
1.04291e-09
0.00519467
1.42319e-09
0.00519467
2.58539e-09
0.00519467
3.12717e-09
0.00519467
3.25428e-09
0.00519467
3.8915e-09
0.00519467
3.01551e-09
0.00519467
3.52757e-09
0.00519467
3.23494e-09
0.00519467
3.71555e-09
0.00519467
5.155e-09
0.00519467
6.74323e-09
0.00519467
1.03108e-08
0.00519467
1.47468e-08
0.00519467
2.10766e-08
0.00519467
3.0821e-08
0.00519467
4.3041e-08
0.00519467
6.15985e-08
0.00519467
8.65672e-08
0.00519467
1.22066e-07
0.00519467
1.73626e-07
0.00519467
2.44872e-07
0.00519466
3.6061e-07
0.00519464
5.22698e-07
0.00519459
8.78456e-07
0.00519449
1.47825e-06
0.00519428
4.0986e-06
0.00519403
1.1042e-05
0.00519347
3.93351e-05
7.87406e-05
0.0051431
0.00100399
0.00518464
0.000528699
0.00519093
0.000141517
0.00519182
5.70558e-06
0.00519145
-9.09112e-06
0.00519193
4.2125e-06
0.00519228
8.38642e-06
0.00519274
1.02803e-05
0.00519309
8.95394e-06
0.00519339
7.80446e-06
0.00519363
6.44382e-06
0.00519383
5.39885e-06
0.00519399
4.48208e-06
0.00519412
3.76301e-06
0.00519423
3.17094e-06
0.00519432
2.69583e-06
0.00519439
2.30917e-06
0.00519446
1.98519e-06
0.00519451
1.71828e-06
0.00519456
1.49066e-06
0.00519459
1.2919e-06
0.00519462
1.12593e-06
0.00519465
9.75385e-07
0.00519467
8.47661e-07
0.00519469
7.36848e-07
0.0051947
6.35875e-07
0.00519472
5.53338e-07
0.00519473
4.76666e-07
0.00519473
4.11697e-07
0.00519474
3.5682e-07
0.00519475
3.0334e-07
0.00519475
2.62464e-07
0.00519475
2.21404e-07
0.00519476
1.8689e-07
0.00519476
1.59155e-07
0.00519476
1.30682e-07
0.00519476
1.11577e-07
0.00519476
9.20138e-08
0.00519476
7.61945e-08
0.00519476
6.59476e-08
0.00519476
5.2894e-08
0.00519476
4.61671e-08
0.00519476
3.77361e-08
0.00519476
3.01084e-08
0.00519476
2.60021e-08
0.00519476
1.91484e-08
0.00519476
1.63437e-08
0.00519476
1.30612e-08
0.00519476
9.63689e-09
0.00519476
9.20329e-09
0.00519476
6.29239e-09
0.00519476
5.69505e-09
0.00519476
4.58851e-09
0.00519476
2.79536e-09
0.00519476
2.45033e-09
0.00519476
1.17734e-09
0.00519476
7.11701e-10
0.00519476
1.23367e-09
0.00519476
6.68398e-10
0.00519476
1.82619e-09
0.00519476
1.97788e-09
0.00519476
2.03462e-09
0.00519476
2.48253e-09
0.00519476
1.99509e-09
0.00519476
1.63726e-09
0.00519476
1.26912e-09
0.00519476
-6.60222e-11
0.00519476
3.02277e-10
0.00519476
-1.64824e-10
0.00519476
2.86183e-10
0.00519476
1.1434e-09
0.00519476
1.46861e-09
0.00519476
2.72535e-09
0.00519476
3.22981e-09
0.00519476
3.46632e-09
0.00519476
4.05195e-09
0.00519476
3.2031e-09
0.00519476
3.62744e-09
0.00519476
3.30791e-09
0.00519476
3.68583e-09
0.00519476
5.05392e-09
0.00519476
6.52018e-09
0.00519476
1.00317e-08
0.00519476
1.43245e-08
0.00519476
2.05034e-08
0.00519476
2.99203e-08
0.00519476
4.18119e-08
0.00519476
5.9841e-08
0.00519477
8.41618e-08
0.00519477
1.18851e-07
0.00519477
1.69671e-07
0.00519478
2.40854e-07
0.00519478
3.58836e-07
0.00519477
5.28156e-07
0.00519475
9.03665e-07
0.0051947
1.53006e-06
0.00519462
4.17623e-06
0.00519467
1.09862e-05
0.00519521
3.88019e-05
7.72381e-05
0.0051332
0.000870787
0.00518038
0.00048152
0.00518946
0.000132443
0.0051903
4.86621e-06
0.00518979
-8.58156e-06
0.0051903
3.70151e-06
0.00519083
7.85618e-06
0.00519148
9.62491e-06
0.00519202
8.41798e-06
0.00519248
7.33937e-06
0.00519286
6.06924e-06
0.00519317
5.08794e-06
0.00519342
4.22718e-06
0.00519364
3.55067e-06
0.00519381
2.99414e-06
0.00519396
2.54705e-06
0.00519409
2.18359e-06
0.0051942
1.87841e-06
0.00519429
1.62712e-06
0.00519436
1.41292e-06
0.00519443
1.22537e-06
0.00519449
1.06907e-06
0.00519454
9.26979e-07
0.00519458
8.06301e-07
0.00519461
7.01944e-07
0.00519464
6.06405e-07
0.00519467
5.28454e-07
0.00519469
4.55722e-07
0.00519471
3.93991e-07
0.00519472
3.42014e-07
0.00519473
2.91114e-07
0.00519474
2.52207e-07
0.00519475
2.13175e-07
0.00519476
1.79943e-07
0.00519477
1.53495e-07
0.00519477
1.26084e-07
0.00519477
1.07766e-07
0.00519478
8.90761e-08
0.00519478
7.37508e-08
0.00519478
6.38495e-08
0.00519478
5.13456e-08
0.00519479
4.46425e-08
0.00519479
3.67869e-08
0.00519479
2.91391e-08
0.00519479
2.52256e-08
0.00519479
1.84868e-08
0.00519479
1.56195e-08
0.00519479
1.25648e-08
0.00519479
9.20144e-09
0.00519479
8.80624e-09
0.00519479
6.13062e-09
0.00519479
5.34754e-09
0.00519479
4.51671e-09
0.00519479
2.61556e-09
0.00519479
2.38746e-09
0.00519479
1.14495e-09
0.00519479
6.51832e-10
0.00519479
1.25436e-09
0.00519479
6.70994e-10
0.00519479
1.82034e-09
0.00519479
2.10843e-09
0.00519479
2.04125e-09
0.00519479
2.60739e-09
0.00519479
2.01712e-09
0.00519479
1.78944e-09
0.00519479
1.42929e-09
0.00519479
1.09298e-10
0.00519479
4.16711e-10
0.00519479
-6.8368e-11
0.00519479
3.39431e-10
0.00519479
1.23864e-09
0.00519479
1.48979e-09
0.00519479
2.81224e-09
0.00519479
3.24884e-09
0.00519479
3.5854e-09
0.00519479
4.12223e-09
0.00519479
3.3152e-09
0.00519479
3.66593e-09
0.00519479
3.32014e-09
0.00519479
3.60013e-09
0.00519479
4.86856e-09
0.00519479
6.16305e-09
0.00519479
9.51941e-09
0.00519479
1.35512e-08
0.00519479
1.94329e-08
0.00519479
2.8308e-08
0.00519479
3.95795e-08
0.0051948
5.66805e-08
0.0051948
7.97895e-08
0.00519481
1.12879e-07
0.00519482
1.61727e-07
0.00519483
2.30988e-07
0.00519484
3.47762e-07
0.00519485
5.18607e-07
0.00519485
9.00139e-07
0.00519485
1.53066e-06
0.0051949
4.12195e-06
0.00519526
1.06318e-05
0.00519681
3.72439e-05
7.37575e-05
0.00512496
0.000745826
0.0051767
0.000429782
0.00518819
0.000120956
0.00518897
4.08788e-06
0.00518831
-7.92459e-06
0.00518883
3.17931e-06
0.00518951
7.17656e-06
0.00519034
8.79271e-06
0.00519104
7.71833e-06
0.00519165
6.73153e-06
0.00519214
5.57434e-06
0.00519256
4.67563e-06
0.0051929
3.88725e-06
0.00519318
3.26654e-06
0.00519342
2.75634e-06
0.00519362
2.34595e-06
0.00519379
2.01279e-06
0.00519394
1.7323e-06
0.00519406
1.50158e-06
0.00519417
1.30508e-06
0.00519426
1.13244e-06
0.00519434
9.88991e-07
0.00519441
8.58175e-07
0.00519447
7.46975e-07
0.00519452
6.51179e-07
0.00519456
5.63039e-07
0.0051946
4.91393e-07
0.00519463
4.24157e-07
0.00519466
3.66989e-07
0.00519468
3.19037e-07
0.0051947
2.71779e-07
0.00519472
2.35761e-07
0.00519473
1.99658e-07
0.00519475
1.68534e-07
0.00519476
1.44034e-07
0.00519476
1.18303e-07
0.00519477
1.01236e-07
0.00519478
8.38692e-08
0.00519478
6.94263e-08
0.00519478
6.01332e-08
0.00519479
4.84389e-08
0.00519479
4.19311e-08
0.00519479
3.48287e-08
0.00519479
2.73648e-08
0.0051948
2.37692e-08
0.0051948
1.7317e-08
0.0051948
1.44582e-08
0.0051948
1.17091e-08
0.0051948
8.4822e-09
0.0051948
8.1617e-09
0.0051948
5.79582e-09
0.0051948
4.85017e-09
0.0051948
4.32538e-09
0.0051948
2.36393e-09
0.0051948
2.26466e-09
0.0051948
1.09158e-09
0.0051948
5.60903e-10
0.0051948
1.24497e-09
0.0051948
6.25835e-10
0.0051948
1.72554e-09
0.0051948
2.13992e-09
0.0051948
1.94436e-09
0.0051948
2.63389e-09
0.0051948
1.94527e-09
0.0051948
1.85044e-09
0.0051948
1.53975e-09
0.0051948
2.7467e-10
0.0051948
5.51907e-10
0.0051948
4.84791e-11
0.0051948
4.0641e-10
0.0051948
1.33649e-09
0.0051948
1.49416e-09
0.0051948
2.85393e-09
0.0051948
3.19232e-09
0.0051948
3.60959e-09
0.0051948
4.0984e-09
0.0051948
3.3443e-09
0.0051948
3.64012e-09
0.0051948
3.27313e-09
0.0051948
3.46597e-09
0.0051948
4.61588e-09
0.0051948
5.69211e-09
0.0051948
8.80194e-09
0.0051948
1.24518e-08
0.0051948
1.78919e-08
0.0051948
2.60287e-08
0.00519481
3.64133e-08
0.00519481
5.22263e-08
0.00519482
7.3612e-08
0.00519483
1.04371e-07
0.00519484
1.50067e-07
0.00519485
2.15563e-07
0.00519487
3.2759e-07
0.0051949
4.93988e-07