/*--------------------------------*- C++ -*----------------------------------*\
  =========                 |
  \\      /  F ield         | OpenFOAM: The Open Source CFD Toolbox
   \\    /   O peration     | Website:  https://openfoam.org
    \\  /    A nd           | Version:  7
     \\/     M anipulation  |
\*---------------------------------------------------------------------------*/
FoamFile
{
    version     2.0;
    format      ascii;
    class       volVectorField;
    location    "2";
    object      U;
}
// * * * * * * * * * * * * * * * * * * * * * * * * * * * * * * * * * * * * * //

dimensions      [0 1 -1 0 0 0 0];

internalField   nonuniform List<vector> 
4000
(
(0.537561 0.0563969 0)
(0.552167 0.00359834 0)
(0.517051 -0.00176422 0)
(0.522872 -0.00200127 0)
(0.521061 -0.0021308 0)
(0.521994 -0.00203766 0)
(0.521387 -0.00204479 0)
(0.521237 -0.00203489 0)
(0.520893 -0.00204428 0)
(0.520685 -0.00204821 0)
(0.520479 -0.00205399 0)
(0.520324 -0.00205772 0)
(0.52019 -0.00206112 0)
(0.520081 -0.00206362 0)
(0.519989 -0.00206572 0)
(0.519912 -0.00206735 0)
(0.519847 -0.00206867 0)
(0.519791 -0.00206973 0)
(0.519744 -0.00207059 0)
(0.519704 -0.00207132 0)
(0.519669 -0.00207192 0)
(0.51964 -0.0020724 0)
(0.519615 -0.00207283 0)
(0.519593 -0.00207317 0)
(0.519575 -0.00207347 0)
(0.51956 -0.00207373 0)
(0.519546 -0.00207394 0)
(0.519535 -0.00207413 0)
(0.519526 -0.00207428 0)
(0.519518 -0.00207441 0)
(0.519511 -0.00207453 0)
(0.519506 -0.00207461 0)
(0.519501 -0.00207471 0)
(0.519498 -0.00207476 0)
(0.519494 -0.00207483 0)
(0.519492 -0.00207488 0)
(0.51949 -0.00207491 0)
(0.519488 -0.00207495 0)
(0.519487 -0.00207497 0)
(0.519485 -0.00207499 0)
(0.519484 -0.00207502 0)
(0.519484 -0.00207502 0)
(0.519483 -0.00207505 0)
(0.519483 -0.00207504 0)
(0.519482 -0.00207506 0)
(0.519482 -0.00207507 0)
(0.519482 -0.00207507 0)
(0.519481 -0.00207507 0)
(0.519481 -0.00207508 0)
(0.519481 -0.00207507 0)
(0.519481 -0.00207509 0)
(0.519481 -0.00207508 0)
(0.519481 -0.00207509 0)
(0.519481 -0.00207508 0)
(0.519481 -0.00207509 0)
(0.519481 -0.00207509 0)
(0.519481 -0.00207509 0)
(0.519481 -0.00207509 0)
(0.519481 -0.00207509 0)
(0.519481 -0.00207509 0)
(0.519481 -0.00207509 0)
(0.519481 -0.00207509 0)
(0.519481 -0.00207509 0)
(0.519481 -0.00207509 0)
(0.519481 -0.00207509 0)
(0.519481 -0.00207509 0)
(0.519481 -0.00207509 0)
(0.519481 -0.00207509 0)
(0.519481 -0.0020751 0)
(0.519481 -0.00207509 0)
(0.51948 -0.00207509 0)
(0.51948 -0.00207509 0)
(0.51948 -0.00207509 0)
(0.51948 -0.00207509 0)
(0.51948 -0.00207509 0)
(0.51948 -0.00207508 0)
(0.51948 -0.00207509 0)
(0.51948 -0.00207508 0)
(0.51948 -0.00207509 0)
(0.51948 -0.00207508 0)
(0.51948 -0.00207508 0)
(0.51948 -0.00207507 0)
(0.51948 -0.00207506 0)
(0.519479 -0.00207505 0)
(0.519479 -0.00207503 0)
(0.519478 -0.002075 0)
(0.519478 -0.00207497 0)
(0.519476 -0.00207492 0)
(0.519475 -0.00207486 0)
(0.519472 -0.00207476 0)
(0.519469 -0.00207464 0)
(0.519464 -0.0020745 0)
(0.519458 -0.00207436 0)
(0.51945 -0.00207435 0)
(0.519443 -0.00207464 0)
(0.519436 -0.00207528 0)
(0.519442 -0.00207439 0)
(0.51936 -0.00206119 0)
(0.519228 -0.0020212 0)
(0.518638 -0.00215161 0)
(0.864907 0.128454 0)
(0.911544 0.0160066 0)
(0.861938 0.000986679 0)
(0.871322 -7.15119e-05 0)
(0.867938 -0.000506072 0)
(0.869526 -0.000191107 0)
(0.868568 -0.000202222 0)
(0.868399 -0.000164279 0)
(0.867887 -0.000193818 0)
(0.86759 -0.000206623 0)
(0.867286 -0.000226108 0)
(0.86706 -0.000239028 0)
(0.866862 -0.000251159 0)
(0.866702 -0.000260335 0)
(0.866566 -0.000267538 0)
(0.866452 -0.000273229 0)
(0.866356 -0.000277941 0)
(0.866274 -0.000281865 0)
(0.866204 -0.0002851 0)
(0.866144 -0.000287859 0)
(0.866092 -0.000290211 0)
(0.866048 -0.000292145 0)
(0.86601 -0.000293907 0)
(0.865978 -0.00029534 0)
(0.86595 -0.000296605 0)
(0.865926 -0.000297706 0)
(0.865906 -0.000298604 0)
(0.865889 -0.000299447 0)
(0.865874 -0.000300133 0)
(0.865862 -0.000300707 0)
(0.865851 -0.000301253 0)
(0.865843 -0.000301612 0)
(0.865835 -0.000302032 0)
(0.865829 -0.00030232 0)
(0.865824 -0.000302593 0)
(0.86582 -0.000302851 0)
(0.865816 -0.000302998 0)
(0.865814 -0.000303167 0)
(0.865811 -0.000303283 0)
(0.865809 -0.000303353 0)
(0.865808 -0.000303496 0)
(0.865806 -0.000303513 0)
(0.865805 -0.000303616 0)
(0.865805 -0.00030363 0)
(0.865804 -0.000303663 0)
(0.865803 -0.000303709 0)
(0.865803 -0.000303723 0)
(0.865803 -0.000303756 0)
(0.865802 -0.000303781 0)
(0.865802 -0.000303766 0)
(0.865802 -0.000303814 0)
(0.865802 -0.000303795 0)
(0.865802 -0.000303837 0)
(0.865802 -0.000303828 0)
(0.865801 -0.000303837 0)
(0.865801 -0.000303831 0)
(0.865801 -0.000303838 0)
(0.865801 -0.000303833 0)
(0.865801 -0.000303851 0)
(0.865801 -0.000303832 0)
(0.865801 -0.000303843 0)
(0.865801 -0.000303825 0)
(0.865801 -0.000303837 0)
(0.865801 -0.00030383 0)
(0.865801 -0.000303842 0)
(0.865801 -0.000303827 0)
(0.865801 -0.000303845 0)
(0.865801 -0.00030383 0)
(0.865801 -0.000303852 0)
(0.865801 -0.00030384 0)
(0.865801 -0.000303843 0)
(0.865801 -0.000303832 0)
(0.865801 -0.00030383 0)
(0.865801 -0.000303821 0)
(0.865801 -0.00030383 0)
(0.865801 -0.000303811 0)
(0.865801 -0.000303827 0)
(0.8658 -0.000303805 0)
(0.8658 -0.000303819 0)
(0.8658 -0.000303807 0)
(0.8658 -0.000303801 0)
(0.8658 -0.000303783 0)
(0.8658 -0.00030375 0)
(0.865799 -0.000303702 0)
(0.865798 -0.000303642 0)
(0.865797 -0.000303538 0)
(0.865796 -0.000303425 0)
(0.865794 -0.000303232 0)
(0.865792 -0.000302996 0)
(0.865788 -0.000302655 0)
(0.865783 -0.000302201 0)
(0.865776 -0.000301657 0)
(0.865766 -0.000301028 0)
(0.865754 -0.000300686 0)
(0.865742 -0.000300899 0)
(0.865723 -0.000301461 0)
(0.865717 -0.000293358 0)
(0.865545 -0.000239574 0)
(0.865252 -7.34828e-05 0)
(0.863186 -0.000219209 0)
(0.960309 0.135907 0)
(1.02532 0.0244352 0)
(0.976303 0.00334357 0)
(0.987385 0.000823891 0)
(0.983076 0.000101869 0)
(0.984978 0.000606959 0)
(0.983904 0.000613017 0)
(0.983809 0.000677005 0)
(0.983286 0.0006291 0)
(0.983009 0.000605125 0)
(0.982707 0.000570749 0)
(0.982488 0.000547221 0)
(0.982294 0.000525541 0)
(0.982138 0.000509015 0)
(0.982005 0.000495743 0)
(0.981894 0.000485229 0)
(0.981799 0.000476561 0)
(0.981718 0.000469335 0)
(0.981649 0.000463374 0)
(0.98159 0.000458281 0)
(0.981539 0.000453904 0)
(0.981495 0.000450283 0)
(0.981457 0.000447001 0)
(0.981424 0.000444291 0)
(0.981396 0.000441909 0)
(0.981372 0.00043982 0)
(0.981352 0.000438121 0)
(0.981334 0.000436543 0)
(0.981319 0.000435231 0)
(0.981306 0.000434129 0)
(0.981296 0.00043308 0)
(0.981286 0.000432358 0)
(0.981279 0.000431561 0)
(0.981272 0.000430984 0)
(0.981267 0.000430468 0)
(0.981262 0.00042997 0)
(0.981258 0.000429671 0)
(0.981255 0.000429337 0)
(0.981253 0.00042909 0)
(0.981251 0.000428938 0)
(0.981249 0.000428674 0)
(0.981247 0.000428623 0)
(0.981246 0.00042844 0)
(0.981245 0.000428383 0)
(0.981245 0.000428316 0)
(0.981244 0.000428218 0)
(0.981243 0.00042819 0)
(0.981243 0.000428133 0)
(0.981243 0.000428084 0)
(0.981242 0.0004281 0)
(0.981242 0.000428019 0)
(0.981242 0.000428044 0)
(0.981242 0.000427984 0)
(0.981242 0.000427991 0)
(0.981242 0.000427977 0)
(0.981242 0.000427974 0)
(0.981242 0.000427961 0)
(0.981242 0.000427969 0)
(0.981242 0.000427944 0)
(0.981242 0.000427974 0)
(0.981242 0.000427956 0)
(0.981241 0.000427979 0)
(0.981241 0.000427964 0)
(0.981241 0.000427973 0)
(0.981241 0.000427953 0)
(0.981241 0.000427973 0)
(0.981241 0.000427942 0)
(0.981241 0.000427965 0)
(0.981241 0.000427938 0)
(0.981241 0.000427957 0)
(0.981241 0.000427959 0)
(0.981241 0.000427974 0)
(0.981241 0.000427978 0)
(0.981241 0.000427991 0)
(0.981241 0.000427976 0)
(0.981241 0.000428006 0)
(0.981241 0.000427979 0)
(0.98124 0.00042801 0)
(0.98124 0.000427993 0)
(0.98124 0.000428016 0)
(0.98124 0.000428037 0)
(0.98124 0.000428073 0)
(0.981239 0.000428137 0)
(0.981239 0.000428226 0)
(0.981238 0.000428341 0)
(0.981237 0.000428536 0)
(0.981236 0.000428757 0)
(0.981234 0.00042912 0)
(0.981232 0.00042958 0)
(0.981228 0.000430238 0)
(0.981223 0.000431125 0)
(0.981216 0.000432207 0)
(0.981206 0.000433535 0)
(0.981193 0.000434518 0)
(0.981178 0.000435186 0)
(0.981152 0.000436346 0)
(0.981132 0.000458756 0)
(0.980909 0.000569049 0)
(0.980542 0.000943038 0)
(0.977594 0.00117798 0)
(0.984961 0.123299 0)
(1.05948 0.0286621 0)
(1.01374 0.00469202 0)
(1.02589 0.00070012 0)
(1.02098 -0.000186341 0)
(1.02309 0.000441575 0)
(1.02198 0.000480071 0)
(1.02198 0.00056235 0)
(1.0215 0.000500915 0)
(1.02127 0.000465677 0)
(1.02101 0.000417819 0)
(1.02082 0.000383873 0)
(1.02065 0.000352906 0)
(1.02051 0.000328891 0)
(1.0204 0.000309797 0)
(1.0203 0.000294917 0)
(1.02022 0.000282703 0)
(1.02015 0.000272523 0)
(1.02009 0.000264124 0)
(1.02004 0.000256944 0)
(1.01999 0.000250761 0)
(1.01995 0.000245619 0)
(1.01992 0.000240971 0)
(1.01989 0.000237098 0)
(1.01987 0.000233696 0)
(1.01984 0.000230696 0)
(1.01983 0.000228246 0)
(1.01981 0.000225973 0)
(1.0198 0.00022409 0)
(1.01978 0.000222504 0)
(1.01977 0.000221001 0)
(1.01976 0.000219936 0)
(1.01976 0.000218796 0)
(1.01975 0.000217941 0)
(1.01975 0.000217194 0)
(1.01974 0.000216464 0)
(1.01974 0.000216011 0)
(1.01974 0.000215517 0)
(1.01973 0.000215152 0)
(1.01973 0.000214916 0)
(1.01973 0.000214547 0)
(1.01973 0.000214449 0)
(1.01973 0.000214196 0)
(1.01973 0.00021409 0)
(1.01972 0.000213992 0)
(1.01972 0.000213844 0)
(1.01972 0.000213799 0)
(1.01972 0.000213712 0)
(1.01972 0.000213641 0)
(1.01972 0.000213653 0)
(1.01972 0.000213547 0)
(1.01972 0.000213571 0)
(1.01972 0.000213496 0)
(1.01972 0.000213495 0)
(1.01972 0.000213477 0)
(1.01972 0.000213465 0)
(1.01972 0.000213449 0)
(1.01972 0.000213457 0)
(1.01972 0.000213429 0)
(1.01972 0.000213465 0)
(1.01972 0.000213446 0)
(1.01972 0.000213472 0)
(1.01972 0.000213458 0)
(1.01972 0.000213465 0)
(1.01972 0.000213441 0)
(1.01972 0.00021346 0)
(1.01972 0.000213422 0)
(1.01972 0.000213448 0)
(1.01972 0.000213417 0)
(1.01972 0.00021344 0)
(1.01972 0.000213448 0)
(1.01972 0.000213465 0)
(1.01972 0.000213476 0)
(1.01972 0.000213493 0)
(1.01972 0.000213477 0)
(1.01972 0.000213513 0)
(1.01972 0.000213481 0)
(1.01972 0.000213518 0)
(1.01972 0.000213501 0)
(1.01972 0.000213529 0)
(1.01972 0.000213564 0)
(1.01972 0.000213614 0)
(1.01972 0.000213709 0)
(1.01972 0.000213836 0)
(1.01972 0.000214007 0)
(1.01972 0.000214288 0)
(1.01972 0.000214613 0)
(1.01971 0.000215134 0)
(1.01971 0.000215808 0)
(1.01971 0.000216766 0)
(1.0197 0.000218073 0)
(1.0197 0.000219695 0)
(1.01969 0.000221787 0)
(1.01968 0.000223647 0)
(1.01966 0.000226064 0)
(1.01963 0.0002305 0)
(1.0196 0.000271488 0)
(1.01935 0.000444089 0)
(1.01899 0.00104958 0)
(1.01589 0.00176924 0)
(0.988569 0.10998 0)
(1.06794 0.0309697 0)
(1.02559 0.0056978 0)
(1.03849 0.000547441 0)
(1.03316 -0.000408167 0)
(1.03544 0.000296483 0)
(1.03431 0.000368934 0)
(1.03442 0.000462482 0)
(1.03399 0.000391908 0)
(1.03383 0.000347335 0)
(1.0336 0.000289192 0)
(1.03345 0.000247124 0)
(1.03332 0.000209183 0)
(1.03321 0.000179667 0)
(1.03311 0.000156031 0)
(1.03303 0.000137502 0)
(1.03297 0.000122309 0)
(1.03291 0.000109637 0)
(1.03286 9.91688e-05 0)
(1.03282 9.02008e-05 0)
(1.03278 8.24381e-05 0)
(1.03275 7.59388e-05 0)
(1.03272 7.0042e-05 0)
(1.0327 6.5072e-05 0)
(1.03267 6.06708e-05 0)
(1.03266 5.67288e-05 0)
(1.03264 5.34624e-05 0)
(1.03263 5.04101e-05 0)
(1.03261 4.8039e-05 0)
(1.0326 4.60445e-05 0)
(1.03259 4.415e-05 0)
(1.03259 4.27834e-05 0)
(1.03258 4.13456e-05 0)
(1.03258 4.02475e-05 0)
(1.03257 3.92996e-05 0)
(1.03257 3.83678e-05 0)
(1.03256 3.77759e-05 0)
(1.03256 3.714e-05 0)
(1.03256 3.66604e-05 0)
(1.03256 3.63474e-05 0)
(1.03256 3.58854e-05 0)
(1.03255 3.57433e-05 0)
(1.03255 3.54249e-05 0)
(1.03255 3.52676e-05 0)
(1.03255 3.51362e-05 0)
(1.03255 3.49408e-05 0)
(1.03255 3.48781e-05 0)
(1.03255 3.47666e-05 0)
(1.03255 3.46742e-05 0)
(1.03255 3.46829e-05 0)
(1.03255 3.45557e-05 0)
(1.03255 3.45793e-05 0)
(1.03255 3.4495e-05 0)
(1.03255 3.44851e-05 0)
(1.03255 3.44623e-05 0)
(1.03255 3.44385e-05 0)
(1.03255 3.44189e-05 0)
(1.03255 3.4429e-05 0)
(1.03255 3.43987e-05 0)
(1.03255 3.44418e-05 0)
(1.03255 3.44212e-05 0)
(1.03255 3.44482e-05 0)
(1.03255 3.44358e-05 0)
(1.03255 3.44417e-05 0)
(1.03255 3.44125e-05 0)
(1.03255 3.44284e-05 0)
(1.03255 3.43819e-05 0)
(1.03255 3.44115e-05 0)
(1.03255 3.43787e-05 0)
(1.03255 3.44051e-05 0)
(1.03255 3.44186e-05 0)
(1.03255 3.44383e-05 0)
(1.03255 3.44554e-05 0)
(1.03255 3.44757e-05 0)
(1.03255 3.44603e-05 0)
(1.03255 3.45013e-05 0)
(1.03255 3.44636e-05 0)
(1.03255 3.45041e-05 0)
(1.03255 3.44866e-05 0)
(1.03255 3.45203e-05 0)
(1.03255 3.45685e-05 0)
(1.03255 3.46316e-05 0)
(1.03255 3.47506e-05 0)
(1.03255 3.49104e-05 0)
(1.03255 3.51282e-05 0)
(1.03254 3.54815e-05 0)
(1.03254 3.58986e-05 0)
(1.03254 3.65531e-05 0)
(1.03254 3.74074e-05 0)
(1.03254 3.86203e-05 0)
(1.03253 4.02899e-05 0)
(1.03253 4.23982e-05 0)
(1.03252 4.52503e-05 0)
(1.03251 4.81478e-05 0)
(1.03249 5.31804e-05 0)
(1.03246 6.23172e-05 0)
(1.03242 0.000123545 0)
(1.03218 0.000349215 0)
(1.03186 0.00116814 0)
(1.02902 0.00229699 0)
(0.986395 0.0983027 0)
(1.06822 0.0321961 0)
(1.02897 0.00652318 0)
(1.04243 0.000502467 0)
(1.0368 -0.000472796 0)
(1.03921 0.000276297 0)
(1.03808 0.000380198 0)
(1.03829 0.00047953 0)
(1.03792 0.000404029 0)
(1.03782 0.000352961 0)
(1.03764 0.000288486 0)
(1.03753 0.000241507 0)
(1.03742 0.000199863 0)
(1.03734 0.000167762 0)
(1.03727 0.00014108 0)
(1.03721 0.000119778 0)
(1.03716 0.000102325 0)
(1.03711 8.77671e-05 0)
(1.03708 7.57471e-05 0)
(1.03704 6.5456e-05 0)
(1.03701 5.65357e-05 0)
(1.03699 4.90549e-05 0)
(1.03696 4.22745e-05 0)
(1.03695 3.65435e-05 0)
(1.03693 3.14783e-05 0)
(1.03691 2.69291e-05 0)
(1.0369 2.31632e-05 0)
(1.03689 1.96508e-05 0)
(1.03688 1.68918e-05 0)
(1.03687 1.45632e-05 0)
(1.03686 1.23452e-05 0)
(1.03686 1.0719e-05 0)
(1.03685 9.0314e-06 0)
(1.03685 7.71637e-06 0)
(1.03684 6.59415e-06 0)
(1.03684 5.47927e-06 0)
(1.03684 4.75579e-06 0)
(1.03684 3.984e-06 0)
(1.03683 3.39444e-06 0)
(1.03683 3.00012e-06 0)
(1.03683 2.44272e-06 0)
(1.03683 2.23824e-06 0)
(1.03683 1.85031e-06 0)
(1.03683 1.6326e-06 0)
(1.03683 1.4759e-06 0)
(1.03683 1.23841e-06 0)
(1.03683 1.1587e-06 0)
(1.03683 1.02436e-06 0)
(1.03683 9.12423e-07 0)
(1.03682 9.14969e-07 0)
(1.03682 7.74243e-07 0)
(1.03682 7.93118e-07 0)
(1.03682 7.04058e-07 0)
(1.03682 6.80803e-07 0)
(1.03682 6.55361e-07 0)
(1.03682 6.20811e-07 0)
(1.03682 5.99936e-07 0)
(1.03682 6.1045e-07 0)
(1.03682 5.79886e-07 0)
(1.03682 6.26542e-07 0)
(1.03682 6.07722e-07 0)
(1.03682 6.33887e-07 0)
(1.03682 6.25487e-07 0)
(1.03682 6.2764e-07 0)
(1.03682 5.95983e-07 0)
(1.03682 6.06066e-07 0)
(1.03682 5.5443e-07 0)
(1.03682 5.84776e-07 0)
(1.03682 5.52874e-07 0)
(1.03682 5.79971e-07 0)
(1.03682 5.99761e-07 0)
(1.03682 6.20989e-07 0)
(1.03682 6.4631e-07 0)
(1.03682 6.69058e-07 0)
(1.03682 6.55849e-07 0)
(1.03682 6.98194e-07 0)
(1.03682 6.57927e-07 0)
(1.03682 6.99065e-07 0)
(1.03682 6.82855e-07 0)
(1.03682 7.18289e-07 0)
(1.03682 7.76636e-07 0)
(1.03682 8.48906e-07 0)
(1.03682 9.88332e-07 0)
(1.03682 1.17293e-06 0)
(1.03682 1.42858e-06 0)
(1.03682 1.83994e-06 0)
(1.03682 2.3636e-06 0)
(1.03682 3.15575e-06 0)
(1.03682 4.18245e-06 0)
(1.03681 5.62137e-06 0)
(1.03681 7.60948e-06 0)
(1.03681 1.01552e-05 0)
(1.0368 1.37458e-05 0)
(1.03679 1.77617e-05 0)
(1.03678 2.54865e-05 0)
(1.03674 3.93324e-05 0)
(1.0367 0.000119295 0)
(1.03647 0.000383899 0)
(1.03621 0.0013985 0)
(1.03382 0.0028468 0)
(0.983101 0.0876987 0)
(1.0661 0.0325092 0)
(1.02959 0.00711478 0)
(1.04347 0.000479193 0)
(1.03762 -0.000485439 0)
(1.04015 0.000281972 0)
(1.03902 0.000415813 0)
(1.03933 0.000518869 0)
(1.03901 0.000440676 0)
(1.03897 0.000384551 0)
(1.03883 0.000315113 0)
(1.03876 0.000263903 0)
(1.03868 0.000218749 0)
(1.03863 0.000183856 0)
(1.03858 0.000154815 0)
(1.03853 0.000131577 0)
(1.0385 0.000112575 0)
(1.03847 9.67382e-05 0)
(1.03844 8.36862e-05 0)
(1.03841 7.25386e-05 0)
(1.03839 6.28861e-05 0)
(1.03837 5.48104e-05 0)
(1.03836 4.75213e-05 0)
(1.03834 4.13812e-05 0)
(1.03833 3.60015e-05 0)
(1.03832 3.11976e-05 0)
(1.03831 2.72676e-05 0)
(1.0383 2.3636e-05 0)
(1.03829 2.05932e-05 0)
(1.03829 1.80095e-05 0)
(1.03828 1.55381e-05 0)
(1.03828 1.37014e-05 0)
(1.03827 1.18138e-05 0)
(1.03827 1.03167e-05 0)
(1.03827 9.05163e-06 0)
(1.03826 7.78208e-06 0)
(1.03826 6.94304e-06 0)
(1.03826 6.05054e-06 0)
(1.03826 5.35876e-06 0)
(1.03826 4.8866e-06 0)
(1.03825 4.23832e-06 0)
(1.03825 3.96554e-06 0)
(1.03825 3.53632e-06 0)
(1.03825 3.26854e-06 0)
(1.03825 3.08903e-06 0)
(1.03825 2.81484e-06 0)
(1.03825 2.7196e-06 0)
(1.03825 2.56741e-06 0)
(1.03825 2.43774e-06 0)
(1.03825 2.43367e-06 0)
(1.03825 2.28402e-06 0)
(1.03825 2.29686e-06 0)
(1.03825 2.20716e-06 0)
(1.03825 2.16962e-06 0)
(1.03825 2.14236e-06 0)
(1.03825 2.09775e-06 0)
(1.03825 2.0762e-06 0)
(1.03825 2.08796e-06 0)
(1.03825 2.05784e-06 0)
(1.03825 2.1073e-06 0)
(1.03825 2.09093e-06 0)
(1.03825 2.11486e-06 0)
(1.03825 2.1114e-06 0)
(1.03825 2.10938e-06 0)
(1.03825 2.07675e-06 0)
(1.03825 2.07987e-06 0)
(1.03825 2.02393e-06 0)
(1.03825 2.0542e-06 0)
(1.03825 2.0245e-06 0)
(1.03825 2.05183e-06 0)
(1.03825 2.07733e-06 0)
(1.03825 2.09932e-06 0)
(1.03825 2.13285e-06 0)
(1.03825 2.15765e-06 0)
(1.03825 2.14765e-06 0)
(1.03825 2.18929e-06 0)
(1.03825 2.14708e-06 0)
(1.03825 2.18679e-06 0)
(1.03825 2.17187e-06 0)
(1.03825 2.20745e-06 0)
(1.03825 2.27356e-06 0)
(1.03825 2.35206e-06 0)
(1.03825 2.50696e-06 0)
(1.03825 2.70967e-06 0)
(1.03825 2.99386e-06 0)
(1.03825 3.44981e-06 0)
(1.03825 4.04233e-06 0)
(1.03824 4.9656e-06 0)
(1.03824 6.1485e-06 0)
(1.03824 7.7806e-06 0)
(1.03824 1.00393e-05 0)
(1.03824 1.29677e-05 0)
(1.03823 1.72495e-05 0)
(1.03822 2.23886e-05 0)
(1.03821 3.26095e-05 0)
(1.03818 5.06756e-05 0)
(1.03814 0.000147041 0)
(1.03794 0.00044615 0)
(1.03774 0.00162566 0)
(1.03587 0.0033129 0)
(0.980017 0.0779938 0)
(1.06349 0.0320563 0)
(1.02937 0.00745918 0)
(1.04355 0.000443916 0)
(1.03755 -0.000489331 0)
(1.04016 0.000277901 0)
(1.03904 0.000438342 0)
(1.03943 0.00054295 0)
(1.03916 0.000464337 0)
(1.03917 0.000404924 0)
(1.03908 0.000332448 0)
(1.03905 0.000278357 0)
(1.039 0.000230744 0)
(1.03897 0.000193777 0)
(1.03893 0.000163169 0)
(1.03891 0.000138686 0)
(1.03889 0.000118692 0)
(1.03887 0.000102021 0)
(1.03885 8.82843e-05 0)
(1.03883 7.65598e-05 0)
(1.03882 6.63959e-05 0)
(1.03881 5.78909e-05 0)
(1.0388 5.02152e-05 0)
(1.03879 4.37405e-05 0)
(1.03878 3.80825e-05 0)
(1.03877 3.30145e-05 0)
(1.03877 2.88743e-05 0)
(1.03876 2.5053e-05 0)
(1.03876 2.18162e-05 0)
(1.03875 1.90645e-05 0)
(1.03875 1.64213e-05 0)
(1.03874 1.44371e-05 0)
(1.03874 1.24148e-05 0)
(1.03874 1.07883e-05 0)
(1.03874 9.43022e-06 0)
(1.03873 8.05994e-06 0)
(1.03873 7.14607e-06 0)
(1.03873 6.18346e-06 0)
(1.03873 5.43149e-06 0)
(1.03873 4.92268e-06 0)
(1.03873 4.23825e-06 0)
(1.03873 3.93107e-06 0)
(1.03873 3.48195e-06 0)
(1.03873 3.16336e-06 0)
(1.03873 2.95699e-06 0)
(1.03873 2.64649e-06 0)
(1.03873 2.53673e-06 0)
(1.03873 2.37103e-06 0)
(1.03872 2.22519e-06 0)
(1.03872 2.21439e-06 0)
(1.03872 2.05843e-06 0)
(1.03872 2.06286e-06 0)
(1.03872 1.9757e-06 0)
(1.03872 1.92366e-06 0)
(1.03872 1.89624e-06 0)
(1.03872 1.84351e-06 0)
(1.03872 1.82184e-06 0)
(1.03872 1.83535e-06 0)
(1.03872 1.80597e-06 0)
(1.03872 1.85782e-06 0)
(1.03872 1.8453e-06 0)
(1.03872 1.86593e-06 0)
(1.03872 1.868e-06 0)
(1.03872 1.86125e-06 0)
(1.03872 1.82934e-06 0)
(1.03872 1.82551e-06 0)
(1.03872 1.76623e-06 0)
(1.03872 1.79526e-06 0)
(1.03872 1.76812e-06 0)
(1.03872 1.79491e-06 0)
(1.03872 1.82556e-06 0)
(1.03872 1.84758e-06 0)
(1.03872 1.88922e-06 0)
(1.03872 1.91552e-06 0)
(1.03872 1.90949e-06 0)
(1.03872 1.94898e-06 0)
(1.03872 1.90565e-06 0)
(1.03872 1.94231e-06 0)
(1.03872 1.92827e-06 0)
(1.03872 1.96192e-06 0)
(1.03872 2.03303e-06 0)
(1.03872 2.11531e-06 0)
(1.03872 2.28331e-06 0)
(1.03872 2.49932e-06 0)
(1.03872 2.80476e-06 0)
(1.03872 3.30977e-06 0)
(1.03872 3.93473e-06 0)
(1.03872 4.90589e-06 0)
(1.03872 6.16293e-06 0)
(1.03872 7.90407e-06 0)
(1.03872 1.03431e-05 0)
(1.03872 1.35629e-05 0)
(1.03871 1.84371e-05 0)
(1.0387 2.46348e-05 0)
(1.03869 3.74758e-05 0)
(1.03867 5.984e-05 0)
(1.03863 0.000170612 0)
(1.03847 0.000496055 0)
(1.03834 0.00179845 0)
(1.03701 0.00365052 0)
(0.977433 0.0691529 0)
(1.06097 0.0309987 0)
(1.02893 0.00758146 0)
(1.04334 0.000399864 0)
(1.03721 -0.000488216 0)
(1.03989 0.000264464 0)
(1.03878 0.00044663 0)
(1.03924 0.00055066 0)
(1.03901 0.000473693 0)
(1.03908 0.00041284 0)
(1.03902 0.000339423 0)
(1.03902 0.000284085 0)
(1.039 0.00023544 0)
(1.03899 0.000197533 0)
(1.03898 0.000166232 0)
(1.03897 0.000141181 0)
(1.03896 0.000120743 0)
(1.03895 0.000103684 0)
(1.03895 8.96257e-05 0)
(1.03894 7.7629e-05 0)
(1.03893 6.72094e-05 0)
(1.03893 5.84875e-05 0)
(1.03892 5.0607e-05 0)
(1.03892 4.39447e-05 0)
(1.03892 3.81305e-05 0)
(1.03891 3.28953e-05 0)
(1.03891 2.86138e-05 0)
(1.0389 2.4659e-05 0)
(1.0389 2.13167e-05 0)
(1.0389 1.84788e-05 0)
(1.0389 1.57423e-05 0)
(1.03889 1.36734e-05 0)
(1.03889 1.1579e-05 0)
(1.03889 9.87414e-06 0)
(1.03889 8.46918e-06 0)
(1.03889 7.04774e-06 0)
(1.03889 6.09677e-06 0)
(1.03889 5.10852e-06 0)
(1.03889 4.33232e-06 0)
(1.03889 3.82007e-06 0)
(1.03888 3.1437e-06 0)
(1.03888 2.83121e-06 0)
(1.03888 2.37137e-06 0)
(1.03888 2.01667e-06 0)
(1.03888 1.79909e-06 0)
(1.03888 1.46377e-06 0)
(1.03888 1.33999e-06 0)
(1.03888 1.1627e-06 0)
(1.03888 1.00097e-06 0)
(1.03888 9.82624e-07 0)
(1.03888 8.1885e-07 0)
(1.03888 8.10983e-07 0)
(1.03888 7.29242e-07 0)
(1.03888 6.63716e-07 0)
(1.03888 6.37621e-07 0)
(1.03888 5.78859e-07 0)
(1.03888 5.56986e-07 0)
(1.03888 5.72973e-07 0)
(1.03888 5.44281e-07 0)
(1.03888 5.98668e-07 0)
(1.03888 5.91063e-07 0)
(1.03888 6.07584e-07 0)
(1.03888 6.15331e-07 0)
(1.03888 6.03656e-07 0)
(1.03888 5.74035e-07 0)
(1.03888 5.64062e-07 0)
(1.03888 5.01697e-07 0)
(1.03888 5.28254e-07 0)
(1.03888 5.03154e-07 0)
(1.03888 5.29059e-07 0)
(1.03888 5.64296e-07 0)
(1.03888 5.85778e-07 0)
(1.03888 6.34928e-07 0)
(1.03888 6.62253e-07 0)
(1.03888 6.60827e-07 0)
(1.03888 6.97602e-07 0)
(1.03888 6.53759e-07 0)
(1.03888 6.86362e-07 0)
(1.03888 6.72438e-07 0)
(1.03888 7.02673e-07 0)
(1.03888 7.76058e-07 0)
(1.03888 8.60496e-07 0)
(1.03888 1.0469e-06 0)
(1.03888 1.2755e-06 0)
(1.03888 1.59685e-06 0)
(1.03888 2.11833e-06 0)
(1.03888 2.75564e-06 0)
(1.03888 3.70708e-06 0)
(1.03888 4.96822e-06 0)
(1.03888 6.74397e-06 0)
(1.03888 9.27819e-06 0)
(1.03888 1.26954e-05 0)
(1.03887 1.80397e-05 0)
(1.03887 2.516e-05 0)
(1.03886 4.03793e-05 0)
(1.03884 6.65306e-05 0)
(1.03881 0.00018851 0)
(1.03869 0.000530342 0)
(1.03863 0.00191144 0)
(1.03784 0.00385967 0)
(0.975339 0.0610796 0)
(1.0587 0.0294632 0)
(1.02847 0.00751042 0)
(1.04304 0.000353461 0)
(1.03682 -0.00048045 0)
(1.03954 0.000245495 0)
(1.03844 0.000443545 0)
(1.03896 0.000545151 0)
(1.03878 0.000471489 0)
(1.0389 0.000410864 0)
(1.03887 0.000338368 0)
(1.0389 0.000283265 0)
(1.03891 0.00023488 0)
(1.03892 0.000197066 0)
(1.03892 0.000165884 0)
(1.03893 0.000140902 0)
(1.03893 0.00012054 0)
(1.03894 0.000103521 0)
(1.03894 8.94957e-05 0)
(1.03894 7.75297e-05 0)
(1.03894 6.7116e-05 0)
(1.03894 5.84025e-05 0)
(1.03894 5.0519e-05 0)
(1.03894 4.38427e-05 0)
(1.03894 3.8028e-05 0)
(1.03894 3.27664e-05 0)
(1.03894 2.84616e-05 0)
(1.03894 2.44792e-05 0)
(1.03894 2.11129e-05 0)
(1.03894 1.82598e-05 0)
(1.03894 1.54974e-05 0)
(1.03894 1.33971e-05 0)
(1.03894 1.12804e-05 0)
(1.03894 9.53522e-06 0)
(1.03894 8.11282e-06 0)
(1.03894 6.66728e-06 0)
(1.03894 5.69781e-06 0)
(1.03894 4.69939e-06 0)
(1.03894 3.90754e-06 0)
(1.03894 3.39205e-06 0)
(1.03894 2.72231e-06 0)
(1.03894 2.40038e-06 0)
(1.03894 1.95339e-06 0)
(1.03894 1.59024e-06 0)
(1.03894 1.37971e-06 0)
(1.03894 1.03745e-06 0)
(1.03894 9.03817e-07 0)
(1.03894 7.25277e-07 0)
(1.03894 5.54575e-07 0)
(1.03894 5.32621e-07 0)
(1.03894 3.70361e-07 0)
(1.03894 3.52179e-07 0)
(1.03894 2.78697e-07 0)
(1.03894 2.01031e-07 0)
(1.03894 1.77836e-07 0)
(1.03894 1.14372e-07 0)
(1.03894 9.25773e-08 0)
(1.03894 1.10901e-07 0)
(1.03894 8.32385e-08 0)
(1.03894 1.40337e-07 0)
(1.03894 1.38877e-07 0)
(1.03894 1.50489e-07 0)
(1.03894 1.64098e-07 0)
(1.03893 1.47088e-07 0)
(1.03893 1.2136e-07 0)
(1.03893 1.06137e-07 0)
(1.03893 4.09521e-08 0)
(1.03893 6.27435e-08 0)
(1.03893 3.87869e-08 0)
(1.03893 6.3414e-08 0)
(1.03893 1.03831e-07 0)
(1.03893 1.24075e-07 0)
(1.03893 1.80733e-07 0)
(1.03893 2.08232e-07 0)
(1.03893 2.12153e-07 0)
(1.03893 2.45985e-07 0)
(1.03893 2.02327e-07 0)
(1.03893 2.30305e-07 0)
(1.03893 2.15869e-07 0)
(1.03893 2.41673e-07 0)
(1.03893 3.14881e-07 0)
(1.03893 3.97776e-07 0)
(1.03893 5.88267e-07 0)
(1.03893 8.18541e-07 0)
(1.03893 1.14249e-06 0)
(1.03893 1.64026e-06 0)
(1.03893 2.25871e-06 0)
(1.03893 3.19239e-06 0)
(1.03893 4.44747e-06 0)
(1.03893 6.23064e-06 0)
(1.03893 8.81029e-06 0)
(1.03893 1.23506e-05 0)
(1.03893 1.80387e-05 0)
(1.03893 2.58946e-05 0)
(1.03892 4.30212e-05 0)
(1.03891 7.20842e-05 0)
(1.03889 0.000201437 0)
(1.03882 0.000549988 0)
(1.03882 0.00196692 0)
(1.03856 0.00394857 0)
(0.973658 0.053653 0)
(1.05672 0.0275433 0)
(1.02804 0.00726997 0)
(1.04273 0.000307772 0)
(1.03644 -0.000465692 0)
(1.03919 0.000222862 0)
(1.0381 0.000430305 0)
(1.03868 0.000527859 0)
(1.03854 0.000458793 0)
(1.03869 0.000399861 0)
(1.0387 0.00032989 0)
(1.03876 0.000276317 0)
(1.03879 0.000229308 0)
(1.03882 0.000192477 0)
(1.03884 0.000162137 0)
(1.03886 0.000137803 0)
(1.03888 0.000117988 0)
(1.03889 0.000101401 0)
(1.0389 8.77333e-05 0)
(1.03891 7.60755e-05 0)
(1.03892 6.59077e-05 0)
(1.03892 5.74091e-05 0)
(1.03893 4.97076e-05 0)
(1.03893 4.31769e-05 0)
(1.03894 3.75035e-05 0)
(1.03894 3.2346e-05 0)
(1.03894 2.81276e-05 0)
(1.03894 2.42157e-05 0)
(1.03895 2.0903e-05 0)
(1.03895 1.81012e-05 0)
(1.03895 1.5377e-05 0)
(1.03895 1.32974e-05 0)
(1.03895 1.12076e-05 0)
(1.03895 9.46174e-06 0)
(1.03895 8.05203e-06 0)
(1.03895 6.61008e-06 0)
(1.03895 5.64177e-06 0)
(1.03895 4.64978e-06 0)
(1.03895 3.85279e-06 0)
(1.03895 3.336e-06 0)
(1.03895 2.67325e-06 0)
(1.03895 2.33919e-06 0)
(1.03895 1.90732e-06 0)
(1.03895 1.53134e-06 0)
(1.03895 1.3245e-06 0)
(1.03895 9.80569e-07 0)
(1.03895 8.4139e-07 0)
(1.03895 6.71916e-07 0)
(1.03895 5.0036e-07 0)
(1.03895 4.79343e-07 0)
(1.03895 3.2885e-07 0)
(1.03895 3.03397e-07 0)
(1.03895 2.40868e-07 0)
(1.03895 1.53775e-07 0)
(1.03895 1.34525e-07 0)
(1.03895 6.94272e-08 0)
(1.03895 4.69527e-08 0)
(1.03895 6.90726e-08 0)
(1.03895 4.13737e-08 0)
(1.03895 9.99882e-08 0)
(1.03895 1.05024e-07 0)
(1.03895 1.11085e-07 0)
(1.03895 1.30489e-07 0)
(1.03895 1.08229e-07 0)
(1.03895 8.76292e-08 0)
(1.03895 6.941e-08 0)
(1.03895 2.65989e-09 0)
(1.03895 2.04231e-08 0)
(1.03895 -3.17684e-09 0)
(1.03895 1.94652e-08 0)
(1.03895 6.36017e-08 0)
(1.03895 8.17339e-08 0)
(1.03895 1.43876e-07 0)
(1.03895 1.70332e-07 0)
(1.03895 1.79727e-07 0)
(1.03895 2.10685e-07 0)
(1.03895 1.67916e-07 0)
(1.03895 1.91351e-07 0)
(1.03895 1.75936e-07 0)
(1.03895 1.96933e-07 0)
(1.03895 2.67514e-07 0)
(1.03895 3.44614e-07 0)
(1.03895 5.23594e-07 0)
(1.03895 7.43825e-07 0)
(1.03895 1.05876e-06 0)
(1.03895 1.53876e-06 0)
(1.03895 2.14331e-06 0)
(1.03895 3.06079e-06 0)
(1.03895 4.29834e-06 0)
(1.03895 6.06156e-06 0)
(1.03895 8.6354e-06 0)
(1.03895 1.22186e-05 0)
(1.03895 1.81032e-05 0)
(1.03895 2.64584e-05 0)
(1.03895 4.49043e-05 0)
(1.03895 7.58505e-05 0)
(1.03893 0.000208531 0)
(1.03892 0.000554686 0)
(1.03898 0.00196674 0)
(1.03921 0.00392524 0)
(0.972311 0.0467661 0)
(1.055 0.025312 0)
(1.02768 0.00688093 0)
(1.04245 0.000264225 0)
(1.0361 -0.00044384 0)
(1.03887 0.000197886 0)
(1.03778 0.000407847 0)
(1.03841 0.000499844 0)
(1.03831 0.000436371 0)
(1.0385 0.000380417 0)
(1.03854 0.000314367 0)
(1.03862 0.00026347 0)
(1.03867 0.000218824 0)
(1.03872 0.000183768 0)
(1.03875 0.000154916 0)
(1.03878 0.000131751 0)
(1.03881 0.000112908 0)
(1.03883 9.71037e-05 0)
(1.03885 8.40861e-05 0)
(1.03887 7.29871e-05 0)
(1.03888 6.32822e-05 0)
(1.03889 5.51842e-05 0)
(1.0389 4.78308e-05 0)
(1.03891 4.15882e-05 0)
(1.03892 3.61813e-05 0)
(1.03893 3.12434e-05 0)
(1.03893 2.72096e-05 0)
(1.03894 2.34553e-05 0)
(1.03894 2.02703e-05 0)
(1.03894 1.75836e-05 0)
(1.03895 1.49592e-05 0)
(1.03895 1.29527e-05 0)
(1.03895 1.094e-05 0)
(1.03895 9.23698e-06 0)
(1.03895 7.87453e-06 0)
(1.03895 6.46917e-06 0)
(1.03895 5.52706e-06 0)
(1.03896 4.56557e-06 0)
(1.03896 3.78261e-06 0)
(1.03896 3.27608e-06 0)
(1.03896 2.6332e-06 0)
(1.03896 2.29461e-06 0)
(1.03896 1.88525e-06 0)
(1.03896 1.50172e-06 0)
(1.03896 1.3006e-06 0)
(1.03896 9.59059e-07 0)
(1.03896 8.15794e-07 0)
(1.03896 6.56325e-07 0)
(1.03896 4.86162e-07 0)
(1.03896 4.66254e-07 0)
(1.03896 3.26939e-07 0)
(1.03896 2.92367e-07 0)
(1.03896 2.42956e-07 0)
(1.03896 1.49431e-07 0)
(1.03896 1.35047e-07 0)
(1.03896 7.14677e-08 0)
(1.03896 4.74545e-08 0)
(1.03896 7.46809e-08 0)
(1.03896 4.56256e-08 0)
(1.03896 1.03889e-07 0)
(1.03896 1.15334e-07 0)
(1.03896 1.15371e-07 0)
(1.03896 1.40545e-07 0)
(1.03896 1.13246e-07 0)
(1.03896 9.86329e-08 0)
(1.03896 8.00756e-08 0)
(1.03896 1.36703e-08 0)
(1.03896 2.93201e-08 0)
(1.03896 5.50381e-09 0)
(1.03896 2.57567e-08 0)
(1.03896 7.14544e-08 0)
(1.03896 8.63703e-08 0)
(1.03896 1.51605e-07 0)
(1.03896 1.75481e-07 0)
(1.03896 1.89963e-07 0)
(1.03896 2.18203e-07 0)
(1.03896 1.7705e-07 0)
(1.03896 1.96487e-07 0)
(1.03896 1.79907e-07 0)
(1.03896 1.96138e-07 0)
(1.03896 2.62221e-07 0)
(1.03896 3.31503e-07 0)
(1.03896 5.03197e-07 0)
(1.03896 7.12066e-07 0)
(1.03896 1.01473e-06 0)
(1.03896 1.47383e-06 0)
(1.03896 2.05605e-06 0)
(1.03896 2.93926e-06 0)
(1.03896 4.13205e-06 0)
(1.03896 5.83618e-06 0)
(1.03896 8.34293e-06 0)
(1.03896 1.18776e-05 0)
(1.03896 1.77907e-05 0)
(1.03897 2.63703e-05 0)
(1.03897 4.54709e-05 0)
(1.03897 7.71925e-05 0)
(1.03896 0.000209122 0)
(1.03901 0.000544274 0)
(1.03912 0.00191351 0)
(1.03982 0.00379829 0)
(0.971232 0.0403295 0)
(1.05354 0.0228282 0)
(1.02736 0.00636238 0)
(1.0422 0.000223596 0)
(1.03581 -0.000414671 0)
(1.03857 0.000171825 0)
(1.03749 0.00037732 0)
(1.03817 0.000462346 0)
(1.03809 0.000405217 0)
(1.03832 0.000353368 0)
(1.03838 0.000292446 0)
(1.03849 0.000245238 0)
(1.03855 0.000203829 0)
(1.03862 0.000171252 0)
(1.03867 0.000144464 0)
(1.03871 0.00012293 0)